REMARK  Name = *****
REMARK  4 active torsions:
REMARK  status: ('A' for Active; 'I' for Inactive)
REMARK    1  A    between atoms: C_1  and  C_2
REMARK    2  A    between atoms: C_5  and  C_8
REMARK    3  A    between atoms: C_14  and  C_17
REMARK    4  A    between atoms: C_23  and  N_26
REMARK                            x       y       z     vdW  Elec       q    Type
REMARK                         _______ _______ _______ _____ _____    ______ ____
ROOT
ATOM      1  C   UNL     1       6.848   0.045  -0.546  0.00  0.00    +0.139 A 
ATOM      2  N   UNL     1       7.596   1.193  -0.702  0.00  0.00    -0.338 N 
ATOM      3  H   UNL     1       7.236   2.134  -0.655  0.00  0.00    +0.167 HD
ATOM      4  C   UNL     1       8.886   0.845  -1.010  0.00  0.00    +0.067 A 
ATOM      5  C   UNL     1      10.033   1.599  -1.290  0.00  0.00    +0.039 A 
ATOM      6  C   UNL     1      11.223   0.898  -1.560  0.00  0.00    +0.019 A 
ATOM      7  C   UNL     1      11.215  -0.509  -1.563  0.00  0.00    +0.013 A 
ATOM      8  C   UNL     1      10.048  -1.239  -1.290  0.00  0.00    +0.030 A 
ATOM      9  C   UNL     1       8.867  -0.542  -1.010  0.00  0.00    +0.089 A 
ATOM     10  N   UNL     1       7.610  -1.018  -0.734  0.00  0.00    -0.228 NA
ENDROOT
BRANCH   6  11
ATOM     11  C   UNL     1      12.457   1.648  -1.837  0.00  0.00    +0.139 A 
ATOM     12  N   UNL     1      13.713   1.168  -1.532  0.00  0.00    -0.338 N 
ATOM     13  H   UNL     1      13.907   0.288  -1.081  0.00  0.00    +0.167 HD
ATOM     14  C   UNL     1      14.649   2.091  -1.915  0.00  0.00    +0.068 A 
ATOM     15  C   UNL     1      16.044   2.108  -1.831  0.00  0.00    +0.050 A 
ATOM     16  C   UNL     1      16.710   3.226  -2.352  0.00  0.00    +0.027 A 
ATOM     17  C   UNL     1      15.970   4.309  -2.842  0.00  0.00    +0.025 A 
ATOM     18  C   UNL     1      14.566   4.272  -2.913  0.00  0.00    +0.032 A 
ATOM     19  C   UNL     1      13.899   3.135  -2.437  0.00  0.00    +0.090 A 
ATOM     20  N   UNL     1      12.553   2.854  -2.367  0.00  0.00    -0.228 NA
BRANCH  16  21
ATOM     21  N   UNL     1      18.095   3.353  -2.166  0.00  0.00    -0.358 N 
ATOM     22  H   UNL     1      18.538   4.002  -2.808  0.00  0.00    +0.142 HD
ATOM     23  H   UNL     1      18.587   2.467  -2.112  0.00  0.00    +0.142 HD
ENDBRANCH  16  21
ENDBRANCH   6  11
BRANCH   1  28
ATOM     24  C   UNL     1       1.102   0.141   0.141  0.00  0.00    +0.044 C 
ATOM     25  C   UNL     1       2.598   0.090   0.036  0.00  0.00    -0.050 A 
ATOM     26  C   UNL     1       3.216  -0.954  -0.660  0.00  0.00    +0.004 A 
ATOM     27  C   UNL     1       4.606  -0.977  -0.814  0.00  0.00    +0.012 A 
ATOM     28  C   UNL     1       5.405   0.048  -0.290  0.00  0.00    +0.017 A 
ATOM     29  C   UNL     1       4.785   1.069   0.443  0.00  0.00    +0.012 A 
ATOM     30  C   UNL     1       3.394   1.090   0.604  0.00  0.00    +0.004 A 
ENDBRANCH   1  28
TORSDOF 3
