REMARK  Name = *****
REMARK  2 active torsions:
REMARK  status: ('A' for Active; 'I' for Inactive)
REMARK    1  A    between atoms: C_1  and  C_2
REMARK    2  A    between atoms: C_5  and  N_16
REMARK                            x       y       z     vdW  Elec       q    Type
REMARK                         _______ _______ _______ _____ _____    ______ ____
ROOT
ATOM      1  C   UNL     1       1.026  -0.106  -0.060  0.00  0.00    +0.046 C 
ATOM      2  C   UNL     1       2.533  -0.000  -0.065  0.00  0.00    -0.014 A 
ATOM      3  C   UNL     1       3.249  -1.205  -0.071  0.00  0.00    +0.093 A 
ATOM      4  N   UNL     1       2.607  -2.401  -0.062  0.00  0.00    -0.253 NA
ATOM      5  C   UNL     1       3.349  -3.527  -0.057  0.00  0.00    +0.111 A 
ATOM      6  C   UNL     1       4.726  -3.525  -0.062  0.00  0.00    +0.022 A 
ATOM      7  C   UNL     1       5.371  -2.292  -0.077  0.00  0.00    +0.031 A 
ATOM      8  C   UNL     1       4.652  -1.106  -0.082  0.00  0.00    +0.090 A 
ATOM      9  N   UNL     1       5.324   0.057  -0.092  0.00  0.00    -0.245 NA
ATOM     10  C   UNL     1       4.630   1.202  -0.079  0.00  0.00    +0.072 A 
ATOM     11  C   UNL     1       5.347   2.389  -0.061  0.00  0.00    +0.030 A 
ATOM     12  C   UNL     1       4.715   3.634  -0.031  0.00  0.00    +0.025 A 
ATOM     13  C   UNL     1       3.330   3.714  -0.064  0.00  0.00    +0.025 A 
ATOM     14  C   UNL     1       2.599   2.523  -0.030  0.00  0.00    +0.033 A 
ATOM     15  C   UNL     1       3.222   1.247  -0.062  0.00  0.00    +0.007 A 
ENDROOT
BRANCH  13  16
ATOM     16  N   UNL     1       2.686   4.943   0.111  0.00  0.00    -0.358 N 
ATOM     17  H   UNL     1       3.219   5.742  -0.218  0.00  0.00    +0.142 HD
ATOM     18  H   UNL     1       1.725   4.961  -0.216  0.00  0.00    +0.142 HD
ENDBRANCH  13  16
TORSDOF 1
