MODEL 1
REMARK VINA RESULT:    -4.687      0.000      0.000
REMARK INTER + INTRA:          -4.687
REMARK INTER:                  -4.687
REMARK INTRA:                   0.000
REMARK UNBOUND:                 0.000
ROOT
ATOM      1  C   UNL     1      -1.068  14.014   6.621  1.00  0.00           C
ATOM      2  O   UNL     1      -0.305  13.120   6.989  1.00  0.00           O
ATOM      3  C   UNL     1      -2.380  14.163   7.303  1.00  0.00           C
ATOM      4  C   UNL     1      -2.466  13.787   8.663  1.00  0.00           C
ATOM      5  C   UNL     1      -3.668  13.915   9.366  1.00  0.00           C
ATOM      6  C   UNL     1      -4.757  14.405   8.681  1.00  0.00           C
ATOM      7  O   UNL     1      -6.001  14.590   9.196  1.00  0.00           O
ATOM      8  C   UNL     1      -6.701  15.100   8.042  1.00  0.00           C
ATOM      9  O   UNL     1      -5.868  15.209   6.869  1.00  0.00           O
ATOM     10  C   UNL     1      -4.679  14.760   7.353  1.00  0.00           C
ATOM     11  C   UNL     1      -3.507  14.654   6.633  1.00  0.00           C
ATOM     12  C   UNL     1      -0.685  15.002   5.538  1.00  0.00           C
ATOM     13  C   UNL     1      -1.282  13.528  -0.070  1.00  0.00           C
ATOM     14  C   UNL     1      -1.221  13.894   1.384  1.00  0.00           C
ATOM     15  C   UNL     1      -1.012  12.904   2.350  1.00  0.00           C
ATOM     16  C   UNL     1      -0.874  13.241   3.700  1.00  0.00           C
ATOM     17  C   UNL     1      -0.955  14.576   4.114  1.00  0.00           C
ATOM     18  C   UNL     1      -1.179  15.563   3.143  1.00  0.00           C
ATOM     19  C   UNL     1      -1.312  15.227   1.793  1.00  0.00           C
ENDROOT
TORSDOF 0
ENDMDL
MODEL 2
REMARK VINA RESULT:    -4.464     10.585     13.138
REMARK INTER + INTRA:          -4.464
REMARK INTER:                  -4.464
REMARK INTRA:                   0.000
REMARK UNBOUND:                 0.000
ROOT
ATOM      1  C   UNL     1       6.575  14.971  12.788  1.00  0.00           C
ATOM      2  O   UNL     1       6.002  16.047  12.611  1.00  0.00           O
ATOM      3  C   UNL     1       7.571  14.516  11.784  1.00  0.00           C
ATOM      4  C   UNL     1       8.294  15.502  11.074  1.00  0.00           C
ATOM      5  C   UNL     1       9.255  15.139  10.125  1.00  0.00           C
ATOM      6  C   UNL     1       9.456  13.795   9.903  1.00  0.00           C
ATOM      7  O   UNL     1      10.339  13.260   9.019  1.00  0.00           O
ATOM      8  C   UNL     1      10.102  11.851   9.216  1.00  0.00           C
ATOM      9  O   UNL     1       9.091  11.574  10.208  1.00  0.00           O
ATOM     10  C   UNL     1       8.745  12.834  10.585  1.00  0.00           C
ATOM     11  C   UNL     1       7.796  13.157  11.532  1.00  0.00           C
ATOM     12  C   UNL     1       6.341  14.130  14.026  1.00  0.00           C
ATOM     13  C   UNL     1       1.718  10.590  14.293  1.00  0.00           C
ATOM     14  C   UNL     1       2.938  11.453  14.149  1.00  0.00           C
ATOM     15  C   UNL     1       2.895  12.601  13.350  1.00  0.00           C
ATOM     16  C   UNL     1       3.998  13.457  13.270  1.00  0.00           C
ATOM     17  C   UNL     1       5.173  13.174  13.978  1.00  0.00           C
ATOM     18  C   UNL     1       5.215  12.014  14.766  1.00  0.00           C
ATOM     19  C   UNL     1       4.110  11.162  14.850  1.00  0.00           C
ENDROOT
TORSDOF 0
ENDMDL
MODEL 3
REMARK VINA RESULT:    -4.404      3.302      6.896
REMARK INTER + INTRA:          -4.404
REMARK INTER:                  -4.404
REMARK INTRA:                   0.000
REMARK UNBOUND:                 0.000
ROOT
ATOM      1  C   UNL     1       0.840  12.828   5.903  1.00  0.00           C
ATOM      2  O   UNL     1       1.408  12.620   6.975  1.00  0.00           O
ATOM      3  C   UNL     1       1.556  13.593   4.848  1.00  0.00           C
ATOM      4  C   UNL     1       2.966  13.498   4.802  1.00  0.00           C
ATOM      5  C   UNL     1       3.698  14.183   3.827  1.00  0.00           C
ATOM      6  C   UNL     1       2.995  14.956   2.930  1.00  0.00           C
ATOM      7  O   UNL     1       3.536  15.692   1.924  1.00  0.00           O
ATOM      8  C   UNL     1       2.350  16.277   1.346  1.00  0.00           C
ATOM      9  O   UNL     1       1.133  15.879   2.012  1.00  0.00           O
ATOM     10  C   UNL     1       1.623  15.060   2.980  1.00  0.00           C
ATOM     11  C   UNL     1       0.871  14.392   3.924  1.00  0.00           C
ATOM     12  C   UNL     1      -0.538  12.276   5.603  1.00  0.00           C
ATOM     13  C   UNL     1      -5.266  15.088   7.528  1.00  0.00           C
ATOM     14  C   UNL     1      -4.026  14.442   6.984  1.00  0.00           C
ATOM     15  C   UNL     1      -2.813  14.562   7.670  1.00  0.00           C
ATOM     16  C   UNL     1      -1.668  13.898   7.217  1.00  0.00           C
ATOM     17  C   UNL     1      -1.710  13.112   6.060  1.00  0.00           C
ATOM     18  C   UNL     1      -2.927  13.007   5.368  1.00  0.00           C
ATOM     19  C   UNL     1      -4.072  13.665   5.824  1.00  0.00           C
ENDROOT
TORSDOF 0
ENDMDL
MODEL 4
REMARK VINA RESULT:    -4.399      1.946      2.199
REMARK INTER + INTRA:          -4.399
REMARK INTER:                  -4.399
REMARK INTRA:                   0.000
REMARK UNBOUND:                 0.000
ROOT
ATOM      1  C   UNL     1       0.392  14.298   6.041  1.00  0.00           C
ATOM      2  O   UNL     1       1.204  13.670   6.722  1.00  0.00           O
ATOM      3  C   UNL     1      -1.051  14.212   6.386  1.00  0.00           C
ATOM      4  C   UNL     1      -1.398  14.003   7.741  1.00  0.00           C
ATOM      5  C   UNL     1      -2.738  13.926   8.132  1.00  0.00           C
ATOM      6  C   UNL     1      -3.696  14.047   7.151  1.00  0.00           C
ATOM      7  O   UNL     1      -5.040  13.991   7.343  1.00  0.00           O
ATOM      8  C   UNL     1      -5.517  14.165   5.993  1.00  0.00           C
ATOM      9  O   UNL     1      -4.456  14.322   5.027  1.00  0.00           O
ATOM     10  C   UNL     1      -3.361  14.238   5.829  1.00  0.00           C
ATOM     11  C   UNL     1      -2.049  14.327   5.410  1.00  0.00           C
ATOM     12  C   UNL     1       0.824  15.203   4.906  1.00  0.00           C
ATOM     13  C   UNL     1       1.970  12.925  -0.335  1.00  0.00           C
ATOM     14  C   UNL     1       1.588  13.477   1.006  1.00  0.00           C
ATOM     15  C   UNL     1       1.744  12.698   2.157  1.00  0.00           C
ATOM     16  C   UNL     1       1.467  13.228   3.422  1.00  0.00           C
ATOM     17  C   UNL     1       1.014  14.546   3.559  1.00  0.00           C
ATOM     18  C   UNL     1       0.845  15.318   2.400  1.00  0.00           C
ATOM     19  C   UNL     1       1.127  14.790   1.137  1.00  0.00           C
ENDROOT
TORSDOF 0
ENDMDL
MODEL 5
REMARK VINA RESULT:    -4.374      2.407      3.516
REMARK INTER + INTRA:          -4.374
REMARK INTER:                  -4.374
REMARK INTRA:                   0.000
REMARK UNBOUND:                 0.000
ROOT
ATOM      1  C   UNL     1      -2.519  14.038   3.919  1.00  0.00           C
ATOM      2  O   UNL     1      -3.025  14.693   3.007  1.00  0.00           O
ATOM      3  C   UNL     1      -3.125  14.109   5.274  1.00  0.00           C
ATOM      4  C   UNL     1      -4.517  14.340   5.366  1.00  0.00           C
ATOM      5  C   UNL     1      -5.149  14.405   6.612  1.00  0.00           C
ATOM      6  C   UNL     1      -4.366  14.248   7.733  1.00  0.00           C
ATOM      7  O   UNL     1      -4.805  14.286   9.019  1.00  0.00           O
ATOM      8  C   UNL     1      -3.571  14.077   9.735  1.00  0.00           C
ATOM      9  O   UNL     1      -2.427  13.917   8.869  1.00  0.00           O
ATOM     10  C   UNL     1      -3.009  14.034   7.646  1.00  0.00           C
ATOM     11  C   UNL     1      -2.355  13.958   6.434  1.00  0.00           C
ATOM     12  C   UNL     1      -1.339  13.117   3.688  1.00  0.00           C
ATOM     13  C   UNL     1       4.064  15.302   3.582  1.00  0.00           C
ATOM     14  C   UNL     1       2.665  14.772   3.697  1.00  0.00           C
ATOM     15  C   UNL     1       1.577  15.577   3.344  1.00  0.00           C
ATOM     16  C   UNL     1       0.274  15.070   3.371  1.00  0.00           C
ATOM     17  C   UNL     1       0.031  13.748   3.765  1.00  0.00           C
ATOM     18  C   UNL     1       1.125  12.950   4.132  1.00  0.00           C
ATOM     19  C   UNL     1       2.428  13.455   4.100  1.00  0.00           C
ENDROOT
TORSDOF 0
ENDMDL
