ROOT
ATOM      1  C   UNL     1       7.273  -1.520  -0.694  1.00  0.00           C
ATOM      2  O   UNL     1       7.292  -2.059  -1.801  1.00  0.00           O
ATOM      3  C   UNL     1       7.929  -2.207   0.449  1.00  0.00           C
ATOM      4  C   UNL     1       9.041  -3.036   0.175  1.00  0.00           C
ATOM      5  C   UNL     1       9.710  -3.700   1.208  1.00  0.00           C
ATOM      6  C   UNL     1       9.237  -3.525   2.489  1.00  0.00           C
ATOM      7  O   UNL     1       9.754  -4.093   3.610  1.00  0.00           O
ATOM      8  C   UNL     1       8.865  -3.568   4.617  1.00  0.00           C
ATOM      9  O   UNL     1       7.842  -2.701   4.082  1.00  0.00           O
ATOM     10  C   UNL     1       8.147  -2.728   2.757  1.00  0.00           C
ATOM     11  C   UNL     1       7.469  -2.053   1.763  1.00  0.00           C
ATOM     12  C   UNL     1       6.658  -0.153  -0.476  1.00  0.00           C
ATOM     13  C   UNL     1       0.899   0.345   0.272  1.00  0.00           C
ATOM     14  C   UNL     1       2.384   0.162   0.156  1.00  0.00           C
ATOM     15  C   UNL     1       2.904  -0.909  -0.578  1.00  0.00           C
ATOM     16  C   UNL     1       4.284  -1.046  -0.761  1.00  0.00           C
ATOM     17  C   UNL     1       5.173  -0.121  -0.201  1.00  0.00           C
ATOM     18  C   UNL     1       4.646   0.943   0.547  1.00  0.00           C
ATOM     19  C   UNL     1       3.267   1.083   0.725  1.00  0.00           C
ENDROOT
TORSDOF 0