MODEL 1
REMARK VINA RESULT:    -5.330      0.000      0.000
REMARK INTER + INTRA:          -5.330
REMARK INTER:                  -5.330
REMARK INTRA:                   0.000
REMARK UNBOUND:                 0.000
ROOT
ATOM      1  C   UNL     1      -3.433  14.070   7.863  1.00  0.00           C
ATOM      2  C   UNL     1      -2.742  14.644   6.865  1.00  0.00           C
ATOM      3  C   UNL     1      -7.363  15.234   9.182  1.00  0.00           C
ATOM      4  C   UNL     1      -6.470  16.182   8.682  1.00  0.00           C
ATOM      5  C   UNL     1      -5.200  15.807   8.235  1.00  0.00           C
ATOM      6  C   UNL     1      -4.795  14.466   8.269  1.00  0.00           C
ATOM      7  C   UNL     1      -5.702  13.522   8.779  1.00  0.00           C
ATOM      8  C   UNL     1      -6.979  13.894   9.223  1.00  0.00           C
ATOM      9  C   UNL     1      -9.498  14.841  10.163  1.00  0.00           C
ATOM     10  O   UNL     1      -8.557  15.748   9.603  1.00  0.00           O
ATOM     11  O   UNL     1      -5.329  12.203   8.839  1.00  0.00           O
ATOM     12  H   UNL     1      -6.041  11.684   9.244  1.00  0.00           H
ATOM     13  C   UNL     1      -1.351  14.204   6.562  1.00  0.00           C
ATOM     14  O   UNL     1      -0.678  13.564   7.361  1.00  0.00           O
ATOM     15  C   UNL     1      -0.758  14.636   5.266  1.00  0.00           C
ATOM     16  C   UNL     1      -1.542  14.806   4.113  1.00  0.00           C
ATOM     17  C   UNL     1      -0.948  15.212   2.914  1.00  0.00           C
ATOM     18  C   UNL     1       0.421  15.436   2.877  1.00  0.00           C
ATOM     19  C   UNL     1       1.207  15.251   4.012  1.00  0.00           C
ATOM     20  C   UNL     1       0.629  14.844   5.210  1.00  0.00           C
ATOM     21  O   UNL     1       0.994  15.839   1.706  1.00  0.00           O
ATOM     22  H   UNL     1       1.947  15.927   1.915  1.00  0.00           H
ATOM     23  O   UNL     1       2.550  15.486   3.897  1.00  0.00           O
ATOM     24  H   UNL     1       2.967  15.301   4.757  1.00  0.00           H
ENDROOT
TORSDOF 0
ENDMDL
MODEL 2
REMARK VINA RESULT:    -5.195      5.804      9.407
REMARK INTER + INTRA:          -5.195
REMARK INTER:                  -5.195
REMARK INTRA:                   0.000
REMARK UNBOUND:                 0.000
ROOT
ATOM      1  C   UNL     1       2.988  12.282   6.891  1.00  0.00           C
ATOM      2  C   UNL     1       3.173  12.509   8.202  1.00  0.00           C
ATOM      3  C   UNL     1       0.714  14.773   4.215  1.00  0.00           C
ATOM      4  C   UNL     1       0.348  14.649   5.555  1.00  0.00           C
ATOM      5  C   UNL     1       1.094  13.856   6.433  1.00  0.00           C
ATOM      6  C   UNL     1       2.234  13.174   5.990  1.00  0.00           C
ATOM      7  C   UNL     1       2.590  13.305   4.636  1.00  0.00           C
ATOM      8  C   UNL     1       1.847  14.103   3.755  1.00  0.00           C
ATOM      9  C   UNL     1       0.173  15.697   2.087  1.00  0.00           C
ATOM     10  O   UNL     1      -0.119  15.561   3.471  1.00  0.00           O
ATOM     11  O   UNL     1       3.693  12.637   4.169  1.00  0.00           O
ATOM     12  H   UNL     1       3.787  12.796   3.217  1.00  0.00           H
ATOM     13  C   UNL     1       3.911  11.522   9.040  1.00  0.00           C
ATOM     14  O   UNL     1       4.095  10.365   8.680  1.00  0.00           O
ATOM     15  C   UNL     1       4.363  11.963  10.388  1.00  0.00           C
ATOM     16  C   UNL     1       4.743  13.291  10.644  1.00  0.00           C
ATOM     17  C   UNL     1       5.162  13.667  11.924  1.00  0.00           C
ATOM     18  C   UNL     1       5.205  12.714  12.931  1.00  0.00           C
ATOM     19  C   UNL     1       4.847  11.391  12.679  1.00  0.00           C
ATOM     20  C   UNL     1       4.432  11.004  11.410  1.00  0.00           C
ATOM     21  O   UNL     1       5.609  13.087  14.179  1.00  0.00           O
ATOM     22  H   UNL     1       5.564  12.266  14.710  1.00  0.00           H
ATOM     23  O   UNL     1       4.920  10.507  13.720  1.00  0.00           O
ATOM     24  H   UNL     1       4.659   9.627  13.394  1.00  0.00           H
ENDROOT
TORSDOF 0
ENDMDL
MODEL 3
REMARK VINA RESULT:    -5.100      1.060      8.434
REMARK INTER + INTRA:          -5.100
REMARK INTER:                  -5.100
REMARK INTRA:                   0.000
REMARK UNBOUND:                 0.000
ROOT
ATOM      1  C   UNL     1      -1.748  13.990   6.348  1.00  0.00           C
ATOM      2  C   UNL     1      -3.010  14.327   6.663  1.00  0.00           C
ATOM      3  C   UNL     1       0.441  15.405   2.921  1.00  0.00           C
ATOM      4  C   UNL     1      -0.940  15.221   2.857  1.00  0.00           C
ATOM      5  C   UNL     1      -1.658  14.780   3.973  1.00  0.00           C
ATOM      6  C   UNL     1      -1.010  14.521   5.186  1.00  0.00           C
ATOM      7  C   UNL     1       0.382  14.706   5.237  1.00  0.00           C
ATOM      8  C   UNL     1       1.105  15.153   4.121  1.00  0.00           C
ATOM      9  C   UNL     1       2.424  15.983   1.734  1.00  0.00           C
ATOM     10  O   UNL     1       1.012  15.817   1.750  1.00  0.00           O
ATOM     11  O   UNL     1       1.049  14.446   6.407  1.00  0.00           O
ATOM     12  H   UNL     1       1.999  14.584   6.275  1.00  0.00           H
ATOM     13  C   UNL     1      -3.687  13.699   7.833  1.00  0.00           C
ATOM     14  O   UNL     1      -3.280  12.665   8.348  1.00  0.00           O
ATOM     15  C   UNL     1      -4.942  14.331   8.323  1.00  0.00           C
ATOM     16  C   UNL     1      -5.152  15.719   8.250  1.00  0.00           C
ATOM     17  C   UNL     1      -6.344  16.274   8.722  1.00  0.00           C
ATOM     18  C   UNL     1      -7.310  15.444   9.269  1.00  0.00           C
ATOM     19  C   UNL     1      -7.102  14.070   9.362  1.00  0.00           C
ATOM     20  C   UNL     1      -5.919  13.504   8.900  1.00  0.00           C
ATOM     21  O   UNL     1      -8.475  15.991   9.723  1.00  0.00           O
ATOM     22  H   UNL     1      -8.990  15.230  10.061  1.00  0.00           H
ATOM     23  O   UNL     1      -8.098  13.314   9.919  1.00  0.00           O
ATOM     24  H   UNL     1      -7.806  12.385   9.932  1.00  0.00           H
ENDROOT
TORSDOF 0
ENDMDL
MODEL 4
REMARK VINA RESULT:    -4.955      5.820      8.495
REMARK INTER + INTRA:          -4.955
REMARK INTER:                  -4.955
REMARK INTRA:                   0.000
REMARK UNBOUND:                 0.000
ROOT
ATOM      1  C   UNL     1       3.630  11.667   8.597  1.00  0.00           C
ATOM      2  C   UNL     1       3.118  12.585   7.761  1.00  0.00           C
ATOM      3  C   UNL     1       4.952  12.413  12.627  1.00  0.00           C
ATOM      4  C   UNL     1       5.075  13.395  11.644  1.00  0.00           C
ATOM      5  C   UNL     1       4.631  13.165  10.339  1.00  0.00           C
ATOM      6  C   UNL     1       4.040  11.944   9.988  1.00  0.00           C
ATOM      7  C   UNL     1       3.925  10.962  10.986  1.00  0.00           C
ATOM      8  C   UNL     1       4.366  11.192  12.297  1.00  0.00           C
ATOM      9  C   UNL     1       5.393  11.799  14.886  1.00  0.00           C
ATOM     10  O   UNL     1       5.450  12.770  13.849  1.00  0.00           O
ATOM     11  O   UNL     1       3.365   9.750  10.669  1.00  0.00           O
ATOM     12  H   UNL     1       3.389   9.171  11.446  1.00  0.00           H
ATOM     13  C   UNL     1       2.777  12.217   6.358  1.00  0.00           C
ATOM     14  O   UNL     1       3.220  11.209   5.819  1.00  0.00           O
ATOM     15  C   UNL     1       1.929  13.163   5.583  1.00  0.00           C
ATOM     16  C   UNL     1       0.938  13.945   6.200  1.00  0.00           C
ATOM     17  C   UNL     1       0.161  14.822   5.438  1.00  0.00           C
ATOM     18  C   UNL     1       0.375  14.905   4.070  1.00  0.00           C
ATOM     19  C   UNL     1       1.343  14.120   3.449  1.00  0.00           C
ATOM     20  C   UNL     1       2.121  13.240   4.195  1.00  0.00           C
ATOM     21  O   UNL     1      -0.382  15.768   3.332  1.00  0.00           O
ATOM     22  H   UNL     1      -0.063  15.654   2.414  1.00  0.00           H
ATOM     23  O   UNL     1       1.494  14.252   2.096  1.00  0.00           O
ATOM     24  H   UNL     1       2.188  13.635   1.803  1.00  0.00           H
ENDROOT
TORSDOF 0
ENDMDL
MODEL 5
REMARK VINA RESULT:    -4.792      9.548     11.431
REMARK INTER + INTRA:          -4.792
REMARK INTER:                  -4.792
REMARK INTRA:                   0.000
REMARK UNBOUND:                 0.000
ROOT
ATOM      1  C   UNL     1       5.708  13.402  11.771  1.00  0.00           C
ATOM      2  C   UNL     1       6.798  12.972  11.114  1.00  0.00           C
ATOM      3  C   UNL     1       2.389  10.945  12.989  1.00  0.00           C
ATOM      4  C   UNL     1       3.095  10.659  11.820  1.00  0.00           C
ATOM      5  C   UNL     1       4.185  11.442  11.430  1.00  0.00           C
ATOM      6  C   UNL     1       4.602  12.529  12.209  1.00  0.00           C
ATOM      7  C   UNL     1       3.880  12.809  13.382  1.00  0.00           C
ATOM      8  C   UNL     1       2.789  12.022  13.778  1.00  0.00           C
ATOM      9  C   UNL     1       0.546  10.371  14.386  1.00  0.00           C
ATOM     10  O   UNL     1       1.334  10.110  13.232  1.00  0.00           O
ATOM     11  O   UNL     1       4.255  13.876  14.158  1.00  0.00           O
ATOM     12  H   UNL     1       3.644  13.961  14.906  1.00  0.00           H
ATOM     13  C   UNL     1       7.840  13.941  10.671  1.00  0.00           C
ATOM     14  O   UNL     1       7.625  15.145  10.593  1.00  0.00           O
ATOM     15  C   UNL     1       9.156  13.391  10.243  1.00  0.00           C
ATOM     16  C   UNL     1       9.697  12.231  10.821  1.00  0.00           C
ATOM     17  C   UNL     1      10.936  11.746  10.392  1.00  0.00           C
ATOM     18  C   UNL     1      11.625  12.426   9.399  1.00  0.00           C
ATOM     19  C   UNL     1      11.102  13.587   8.834  1.00  0.00           C
ATOM     20  C   UNL     1       9.873  14.083   9.254  1.00  0.00           C
ATOM     21  O   UNL     1      12.831  11.944   8.980  1.00  0.00           O
ATOM     22  H   UNL     1      13.124  12.576   8.292  1.00  0.00           H
ATOM     23  O   UNL     1      11.841  14.207   7.863  1.00  0.00           O
ATOM     24  H   UNL     1      11.362  15.005   7.578  1.00  0.00           H
ENDROOT
TORSDOF 0
ENDMDL
