ROOT
ATOM      1  C   UNL     1       5.313   4.880   0.215  1.00  0.00           C
ATOM      2  C   UNL     1       6.650   4.951   0.319  1.00  0.00           C
ATOM      3  C   UNL     1       2.982   1.261   0.316  1.00  0.00           C
ATOM      4  C   UNL     1       4.266   1.266  -0.230  1.00  0.00           C
ATOM      5  C   UNL     1       5.034   2.434  -0.248  1.00  0.00           C
ATOM      6  C   UNL     1       4.537   3.627   0.291  1.00  0.00           C
ATOM      7  C   UNL     1       3.241   3.610   0.834  1.00  0.00           C
ATOM      8  C   UNL     1       2.470   2.439   0.858  1.00  0.00           C
ATOM      9  C   UNL     1       1.012  -0.008   0.745  1.00  0.00           C
ATOM     10  O   UNL     1       2.341   0.056   0.244  1.00  0.00           O
ATOM     11  O   UNL     1       2.720   4.767   1.356  1.00  0.00           O
ATOM     12  H   UNL     1       1.813   4.606   1.656  1.00  0.00           H
ATOM     13  C   UNL     1       7.347   6.261   0.182  1.00  0.00           C
ATOM     14  O   UNL     1       6.811   7.238  -0.328  1.00  0.00           O
ATOM     15  C   UNL     1       8.768   6.335   0.619  1.00  0.00           C
ATOM     16  C   UNL     1       9.256   5.565   1.688  1.00  0.00           C
ATOM     17  C   UNL     1      10.597   5.663   2.069  1.00  0.00           C
ATOM     18  C   UNL     1      11.435   6.532   1.386  1.00  0.00           C
ATOM     19  C   UNL     1      10.954   7.312   0.337  1.00  0.00           C
ATOM     20  C   UNL     1       9.621   7.227  -0.050  1.00  0.00           C
ATOM     21  O   UNL     1      12.745   6.619   1.758  1.00  0.00           O
ATOM     22  H   UNL     1      13.131   7.283   1.151  1.00  0.00           H
ATOM     23  O   UNL     1      11.838   8.150  -0.286  1.00  0.00           O
ATOM     24  H   UNL     1      11.360   8.638  -0.980  1.00  0.00           H
ENDROOT
TORSDOF 0