MODEL 1
REMARK VINA RESULT:    -5.846      0.000      0.000
REMARK INTER + INTRA:          -5.846
REMARK INTER:                  -5.846
REMARK INTRA:                   0.000
REMARK UNBOUND:                 0.000
ROOT
ATOM      1  C   UNL     1      -3.124  14.362   7.590  1.00  0.00           C
ATOM      2  N   UNL     1      -2.759  15.077   6.467  1.00  0.00           N
ATOM      3  H   UNL     1      -3.355  15.717   5.968  1.00  0.00           H
ATOM      4  C   UNL     1      -1.486  14.719   6.106  1.00  0.00           C
ATOM      5  C   UNL     1      -0.653  15.111   5.050  1.00  0.00           C
ATOM      6  C   UNL     1       0.630  14.535   4.984  1.00  0.00           C
ATOM      7  C   UNL     1       1.015  13.587   5.948  1.00  0.00           C
ATOM      8  C   UNL     1       0.155  13.204   6.990  1.00  0.00           C
ATOM      9  C   UNL     1      -1.117  13.785   7.063  1.00  0.00           C
ATOM     10  N   UNL     1      -2.133  13.570   7.960  1.00  0.00           N
ATOM     11  C   UNL     1       1.547  14.932   3.906  1.00  0.00           C
ATOM     12  N   UNL     1       2.916  14.933   4.044  1.00  0.00           N
ATOM     13  H   UNL     1       3.419  14.688   4.884  1.00  0.00           H
ATOM     14  C   UNL     1       3.484  15.346   2.868  1.00  0.00           C
ATOM     15  C   UNL     1       4.815  15.528   2.476  1.00  0.00           C
ATOM     16  C   UNL     1       5.049  15.950   1.161  1.00  0.00           C
ATOM     17  C   UNL     1       3.967  16.260   0.326  1.00  0.00           C
ATOM     18  C   UNL     1       2.638  16.072   0.743  1.00  0.00           C
ATOM     19  C   UNL     1       2.401  15.604   2.043  1.00  0.00           C
ATOM     20  N   UNL     1       1.216  15.361   2.700  1.00  0.00           N
ATOM     21  N   UNL     1       6.353  16.283   0.765  1.00  0.00           N
ATOM     22  H   UNL     1       6.492  16.284  -0.240  1.00  0.00           H
ATOM     23  H   UNL     1       7.078  15.767   1.253  1.00  0.00           H
ATOM     24  C   UNL     1      -8.498  14.483   9.737  1.00  0.00           C
ATOM     25  C   UNL     1      -7.080  14.489   9.247  1.00  0.00           C
ATOM     26  C   UNL     1      -6.309  13.323   9.316  1.00  0.00           C
ATOM     27  C   UNL     1      -5.007  13.303   8.806  1.00  0.00           C
ATOM     28  C   UNL     1      -4.453  14.440   8.202  1.00  0.00           C
ATOM     29  C   UNL     1      -5.212  15.617   8.176  1.00  0.00           C
ATOM     30  C   UNL     1      -6.513  15.642   8.693  1.00  0.00           C
ENDROOT
TORSDOF 0
ENDMDL