REMARK  Name = *****
REMARK  4 active torsions:
REMARK  status: ('A' for Active; 'I' for Inactive)
REMARK    1  A    between atoms: C_1  and  C_2
REMARK    2  A    between atoms: C_5  and  C_8
REMARK    3  A    between atoms: C_14  and  C_17
REMARK    4  A    between atoms: C_23  and  N_26
REMARK                            x       y       z     vdW  Elec       q    Type
REMARK                         _______ _______ _______ _____ _____    ______ ____
ROOT
ATOM      1  C   UNL     1       6.885   0.121  -0.520  0.00  0.00    +0.139 A 
ATOM      2  N   UNL     1       7.633   1.270  -0.678  0.00  0.00    -0.338 N 
ATOM      3  H   UNL     1       7.273   2.209  -0.627  0.00  0.00    +0.167 HD
ATOM      4  C   UNL     1       8.923   0.922  -0.986  0.00  0.00    +0.067 A 
ATOM      5  C   UNL     1      10.069   1.677  -1.266  0.00  0.00    +0.039 A 
ATOM      6  C   UNL     1      11.260   0.977  -1.538  0.00  0.00    +0.019 A 
ATOM      7  C   UNL     1      11.253  -0.429  -1.542  0.00  0.00    +0.013 A 
ATOM      8  C   UNL     1      10.086  -1.161  -1.269  0.00  0.00    +0.030 A 
ATOM      9  C   UNL     1       8.904  -0.465  -0.987  0.00  0.00    +0.089 A 
ATOM     10  N   UNL     1       7.647  -0.941  -0.709  0.00  0.00    -0.228 NA
ENDROOT
BRANCH   6  11
ATOM     11  C   UNL     1      12.493   1.728  -1.816  0.00  0.00    +0.139 A 
ATOM     12  N   UNL     1      13.749   1.251  -1.516  0.00  0.00    -0.338 N 
ATOM     13  H   UNL     1      13.947   0.370  -1.066  0.00  0.00    +0.167 HD
ATOM     14  C   UNL     1      14.682   2.177  -1.899  0.00  0.00    +0.068 A 
ATOM     15  C   UNL     1      16.079   2.196  -1.821  0.00  0.00    +0.050 A 
ATOM     16  C   UNL     1      16.740   3.317  -2.341  0.00  0.00    +0.027 A 
ATOM     17  C   UNL     1      15.996   4.400  -2.827  0.00  0.00    +0.025 A 
ATOM     18  C   UNL     1      14.593   4.359  -2.894  0.00  0.00    +0.032 A 
ATOM     19  C   UNL     1      13.930   3.219  -2.418  0.00  0.00    +0.090 A 
ATOM     20  N   UNL     1      12.585   2.936  -2.345  0.00  0.00    -0.228 NA
BRANCH  16  21
ATOM     21  N   UNL     1      18.125   3.448  -2.157  0.00  0.00    -0.358 N 
ATOM     22  H   UNL     1      18.566   4.100  -2.798  0.00  0.00    +0.142 HD
ATOM     23  H   UNL     1      18.621   2.564  -2.105  0.00  0.00    +0.142 HD
ENDBRANCH  16  21
ENDBRANCH   6  11
BRANCH   1  28
ATOM     24  C   UNL     1       1.138   0.230   0.163  0.00  0.00    +0.044 C 
ATOM     25  C   UNL     1       2.634   0.174   0.062  0.00  0.00    -0.050 A 
ATOM     26  C   UNL     1       3.251  -0.872  -0.634  0.00  0.00    +0.004 A 
ATOM     27  C   UNL     1       4.641  -0.899  -0.786  0.00  0.00    +0.012 A 
ATOM     28  C   UNL     1       5.442   0.125  -0.263  0.00  0.00    +0.017 A 
ATOM     29  C   UNL     1       4.824   1.145   0.472  0.00  0.00    +0.012 A 
ATOM     30  C   UNL     1       3.433   1.170   0.632  0.00  0.00    +0.004 A 
ENDBRANCH   1  28
TORSDOF 3
