ROOT
ATOM      1  C   UNL     1       1.026  -0.106  -0.060  1.00  0.00           C
ATOM      2  C   UNL     1       2.533   0.000  -0.065  1.00  0.00           C
ATOM      3  C   UNL     1       3.249  -1.205  -0.071  1.00  0.00           C
ATOM      4  N   UNL     1       2.607  -2.401  -0.062  1.00  0.00           N
ATOM      5  C   UNL     1       3.349  -3.527  -0.057  1.00  0.00           C
ATOM      6  C   UNL     1       4.726  -3.525  -0.062  1.00  0.00           C
ATOM      7  C   UNL     1       5.371  -2.292  -0.077  1.00  0.00           C
ATOM      8  C   UNL     1       4.652  -1.106  -0.082  1.00  0.00           C
ATOM      9  N   UNL     1       5.324   0.057  -0.092  1.00  0.00           N
ATOM     10  C   UNL     1       4.630   1.202  -0.079  1.00  0.00           C
ATOM     11  C   UNL     1       5.347   2.389  -0.061  1.00  0.00           C
ATOM     12  C   UNL     1       4.715   3.634  -0.031  1.00  0.00           C
ATOM     13  C   UNL     1       3.330   3.714  -0.064  1.00  0.00           C
ATOM     14  C   UNL     1       2.599   2.523  -0.030  1.00  0.00           C
ATOM     15  C   UNL     1       3.222   1.247  -0.062  1.00  0.00           C
ATOM     16  N   UNL     1       2.686   4.943   0.111  1.00  0.00           N
ATOM     17  H   UNL     1       3.219   5.742  -0.218  1.00  0.00           H
ATOM     18  H   UNL     1       1.725   4.961  -0.216  1.00  0.00           H
ENDROOT
TORSDOF 0