MODEL 1
REMARK VINA RESULT:    -5.076      0.000      0.000
REMARK INTER + INTRA:          -5.076
REMARK INTER:                  -5.076
REMARK INTRA:                   0.000
REMARK UNBOUND:                 0.000
ROOT
ATOM      1  C   UNL     1       3.095  11.166   7.377  1.00  0.00           C
ATOM      2  N   UNL     1       3.395  11.625   6.115  1.00  0.00           N
ATOM      3  H   UNL     1       3.778  12.557   5.994  1.00  0.00           H
ATOM      4  O   UNL     1       2.468  10.130   7.579  1.00  0.00           O
ATOM      5  C   UNL     1       3.558  12.081   8.494  1.00  0.00           C
ATOM      6  C   UNL     1       3.815  11.283   9.767  1.00  0.00           C
ATOM      7  C   UNL     1       5.508  12.428  11.181  1.00  0.00           C
ATOM      8  N   UNL     1       4.193  12.137  10.887  1.00  0.00           N
ATOM      9  H   UNL     1       3.453  12.640  11.351  1.00  0.00           H
ATOM     10  O   UNL     1       6.442  12.008  10.505  1.00  0.00           O
ATOM     11  C   UNL     1       3.854  12.618  13.865  1.00  0.00           C
ATOM     12  C   UNL     1       5.046  13.461  13.517  1.00  0.00           C
ATOM     13  C   UNL     1       5.782  13.347  12.324  1.00  0.00           C
ATOM     14  C   UNL     1       6.909  14.158  12.188  1.00  0.00           C
ATOM     15  N   UNL     1       7.313  15.087  13.093  1.00  0.00           N
ATOM     16  C   UNL     1       6.579  15.212  14.217  1.00  0.00           C
ATOM     17  C   UNL     1       6.989  16.283  15.184  1.00  0.00           C
ATOM     18  C   UNL     1       5.461  14.419  14.462  1.00  0.00           C
ATOM     19  C   UNL     1       3.041  10.903   4.905  1.00  0.00           C
ATOM     20  C   UNL     1       1.676  11.293   4.347  1.00  0.00           C
ATOM     21  C   UNL     1       1.651  12.736   3.876  1.00  0.00           C
ATOM     22  N   UNL     1       0.425  13.128   3.384  1.00  0.00           N
ATOM     23  H   UNL     1      -0.281  12.427   3.179  1.00  0.00           H
ATOM     24  O   UNL     1       2.616  13.491   3.939  1.00  0.00           O
ATOM     25  C   UNL     1       0.189  14.467   2.878  1.00  0.00           C
ATOM     26  C   UNL     1       0.612  14.647   1.425  1.00  0.00           C
ATOM     27  C   UNL     1      -0.239  13.833   0.478  1.00  0.00           C
ATOM     28  N   UNL     1       0.056  14.013  -0.843  1.00  0.00           N
ATOM     29  H   UNL     1      -0.463  13.472  -1.523  1.00  0.00           H
ATOM     30  H   UNL     1       0.816  14.595  -1.166  1.00  0.00           H
ATOM     31  O   UNL     1      -1.126  13.061   0.823  1.00  0.00           O
ENDROOT
TORSDOF 0
ENDMDL
MODEL 2
REMARK VINA RESULT:    -5.030      1.519      1.553
REMARK INTER + INTRA:          -5.030
REMARK INTER:                  -5.030
REMARK INTRA:                   0.000
REMARK UNBOUND:                 0.000
ROOT
ATOM      1  C   UNL     1       3.198  11.677   7.919  1.00  0.00           C
ATOM      2  N   UNL     1       3.153  12.347   6.718  1.00  0.00           N
ATOM      3  H   UNL     1       3.392  13.332   6.678  1.00  0.00           H
ATOM      4  O   UNL     1       2.753  10.543   8.069  1.00  0.00           O
ATOM      5  C   UNL     1       3.796  12.486   9.054  1.00  0.00           C
ATOM      6  C   UNL     1       4.422  11.564  10.095  1.00  0.00           C
ATOM      7  C   UNL     1       6.252  12.734  11.302  1.00  0.00           C
ATOM      8  N   UNL     1       4.945  12.299  11.241  1.00  0.00           N
ATOM      9  H   UNL     1       4.277  12.619  11.924  1.00  0.00           H
ATOM     10  O   UNL     1       7.049  12.553  10.388  1.00  0.00           O
ATOM     11  C   UNL     1       5.235  12.305  14.263  1.00  0.00           C
ATOM     12  C   UNL     1       6.216  13.352  13.823  1.00  0.00           C
ATOM     13  C   UNL     1       6.672  13.514  12.502  1.00  0.00           C
ATOM     14  C   UNL     1       7.642  14.492  12.276  1.00  0.00           C
ATOM     15  N   UNL     1       8.133  15.334  13.221  1.00  0.00           N
ATOM     16  C   UNL     1       7.662  15.193  14.477  1.00  0.00           C
ATOM     17  C   UNL     1       8.158  16.167  15.505  1.00  0.00           C
ATOM     18  C   UNL     1       6.725  14.219  14.810  1.00  0.00           C
ATOM     19  C   UNL     1       2.617  11.757   5.503  1.00  0.00           C
ATOM     20  C   UNL     1       1.127  12.019   5.310  1.00  0.00           C
ATOM     21  C   UNL     1       0.835  13.494   5.104  1.00  0.00           C
ATOM     22  N   UNL     1      -0.507  13.768   4.947  1.00  0.00           N
ATOM     23  H   UNL     1      -1.158  13.008   4.777  1.00  0.00           H
ATOM     24  O   UNL     1       1.699  14.365   5.093  1.00  0.00           O
ATOM     25  C   UNL     1      -0.998  15.116   4.733  1.00  0.00           C
ATOM     26  C   UNL     1      -0.937  15.557   3.275  1.00  0.00           C
ATOM     27  C   UNL     1      -1.884  14.768   2.400  1.00  0.00           C
ATOM     28  N   UNL     1      -1.917  15.172   1.097  1.00  0.00           N
ATOM     29  H   UNL     1      -2.512  14.661   0.457  1.00  0.00           H
ATOM     30  H   UNL     1      -1.319  15.898   0.727  1.00  0.00           H
ATOM     31  O   UNL     1      -2.578  13.835   2.786  1.00  0.00           O
ENDROOT
TORSDOF 0
ENDMDL
MODEL 3
REMARK VINA RESULT:    -4.758      6.865     10.865
REMARK INTER + INTRA:          -4.758
REMARK INTER:                  -4.758
REMARK INTRA:                   0.000
REMARK UNBOUND:                 0.000
ROOT
ATOM      1  C   UNL     1       3.394  13.283  -3.399  1.00  0.00           C
ATOM      2  N   UNL     1       2.394  13.350  -4.341  1.00  0.00           N
ATOM      3  H   UNL     1       1.424  13.252  -4.057  1.00  0.00           H
ATOM      4  O   UNL     1       4.584  13.213  -3.692  1.00  0.00           O
ATOM      5  C   UNL     1       2.894  13.246  -1.968  1.00  0.00           C
ATOM      6  C   UNL     1       3.937  13.830  -1.021  1.00  0.00           C
ATOM      7  C   UNL     1       2.843  14.768   1.004  1.00  0.00           C
ATOM      8  N   UNL     1       3.524  13.747   0.375  1.00  0.00           N
ATOM      9  H   UNL     1       3.614  12.851   0.827  1.00  0.00           H
ATOM     10  O   UNL     1       2.519  15.799   0.422  1.00  0.00           O
ATOM     11  C   UNL     1       4.455  13.180   3.208  1.00  0.00           C
ATOM     12  C   UNL     1       3.124  13.842   3.412  1.00  0.00           C
ATOM     13  C   UNL     1       2.431  14.562   2.422  1.00  0.00           C
ATOM     14  C   UNL     1       1.237  15.178   2.798  1.00  0.00           C
ATOM     15  N   UNL     1       0.666  15.086   4.028  1.00  0.00           N
ATOM     16  C   UNL     1       1.322  14.363   4.958  1.00  0.00           C
ATOM     17  C   UNL     1       0.659  14.209   6.295  1.00  0.00           C
ATOM     18  C   UNL     1       2.541  13.745   4.691  1.00  0.00           C
ATOM     19  C   UNL     1       2.653  13.393  -5.770  1.00  0.00           C
ATOM     20  C   UNL     1       2.697  12.013  -6.418  1.00  0.00           C
ATOM     21  C   UNL     1       1.348  11.320  -6.359  1.00  0.00           C
ATOM     22  N   UNL     1       1.357  10.059  -6.918  1.00  0.00           N
ATOM     23  H   UNL     1       2.146   9.768  -7.487  1.00  0.00           H
ATOM     24  O   UNL     1       0.347  11.817  -5.852  1.00  0.00           O
ATOM     25  C   UNL     1       0.168   9.230  -6.970  1.00  0.00           C
ATOM     26  C   UNL     1      -0.734   9.540  -8.159  1.00  0.00           C
ATOM     27  C   UNL     1      -0.083   9.183  -9.476  1.00  0.00           C
ATOM     28  N   UNL     1      -0.878   9.377 -10.569  1.00  0.00           N
ATOM     29  H   UNL     1      -0.486   9.183 -11.481  1.00  0.00           H
ATOM     30  H   UNL     1      -1.804   9.780 -10.516  1.00  0.00           H
ATOM     31  O   UNL     1       1.059   8.758  -9.599  1.00  0.00           O
ENDROOT
TORSDOF 0
ENDMDL
MODEL 4
REMARK VINA RESULT:    -4.620      6.091      8.951
REMARK INTER + INTRA:          -4.620
REMARK INTER:                  -4.620
REMARK INTRA:                   0.000
REMARK UNBOUND:                 0.000
ROOT
ATOM      1  C   UNL     1       3.934  13.363  -0.248  1.00  0.00           C
ATOM      2  N   UNL     1       3.338  13.586  -1.467  1.00  0.00           N
ATOM      3  H   UNL     1       2.327  13.555  -1.550  1.00  0.00           H
ATOM      4  O   UNL     1       5.144  13.209  -0.113  1.00  0.00           O
ATOM      5  C   UNL     1       2.957  13.267   0.908  1.00  0.00           C
ATOM      6  C   UNL     1       3.628  13.687   2.212  1.00  0.00           C
ATOM      7  C   UNL     1       1.943  14.569   3.811  1.00  0.00           C
ATOM      8  N   UNL     1       2.743  13.539   3.361  1.00  0.00           N
ATOM      9  H   UNL     1       2.614  12.609   3.726  1.00  0.00           H
ATOM     10  O   UNL     1       1.906  15.664   3.258  1.00  0.00           O
ATOM     11  C   UNL     1       2.574  12.689   6.270  1.00  0.00           C
ATOM     12  C   UNL     1       1.297  13.450   6.062  1.00  0.00           C
ATOM     13  C   UNL     1       1.043  14.298   4.970  1.00  0.00           C
ATOM     14  C   UNL     1      -0.169  14.989   4.965  1.00  0.00           C
ATOM     15  N   UNL     1      -1.143  14.860   5.903  1.00  0.00           N
ATOM     16  C   UNL     1      -0.902  14.016   6.927  1.00  0.00           C
ATOM     17  C   UNL     1      -2.005  13.825   7.927  1.00  0.00           C
ATOM     18  C   UNL     1       0.294  13.313   7.042  1.00  0.00           C
ATOM     19  C   UNL     1       4.090  13.710  -2.705  1.00  0.00           C
ATOM     20  C   UNL     1       4.281  12.381  -3.430  1.00  0.00           C
ATOM     21  C   UNL     1       2.961  11.808  -3.914  1.00  0.00           C
ATOM     22  N   UNL     1       3.096  10.596  -4.557  1.00  0.00           N
ATOM     23  H   UNL     1       4.017  10.278  -4.840  1.00  0.00           H
ATOM     24  O   UNL     1       1.876  12.354  -3.741  1.00  0.00           O
ATOM     25  C   UNL     1       1.957   9.881  -5.101  1.00  0.00           C
ATOM     26  C   UNL     1       1.555  10.355  -6.493  1.00  0.00           C
ATOM     27  C   UNL     1       2.609  10.038  -7.529  1.00  0.00           C
ATOM     28  N   UNL     1       2.266  10.381  -8.805  1.00  0.00           N
ATOM     29  H   UNL     1       2.945  10.218  -9.539  1.00  0.00           H
ATOM     30  H   UNL     1       1.407  10.859  -9.039  1.00  0.00           H
ATOM     31  O   UNL     1       3.694   9.523  -7.288  1.00  0.00           O
ENDROOT
TORSDOF 0
ENDMDL
MODEL 5
REMARK VINA RESULT:    -4.349      7.277      9.098
REMARK INTER + INTRA:          -4.349
REMARK INTER:                  -4.349
REMARK INTRA:                   0.000
REMARK UNBOUND:                 0.000
ROOT
ATOM      1  C   UNL     1      -1.024  14.772   4.794  1.00  0.00           C
ATOM      2  N   UNL     1      -1.282  14.874   3.447  1.00  0.00           N
ATOM      3  H   UNL     1      -2.089  14.405   3.049  1.00  0.00           H
ATOM      4  O   UNL     1       0.023  15.160   5.306  1.00  0.00           O
ATOM      5  C   UNL     1      -2.123  14.087   5.583  1.00  0.00           C
ATOM      6  C   UNL     1      -2.128  14.574   7.028  1.00  0.00           C
ATOM      7  C   UNL     1      -4.404  14.372   8.004  1.00  0.00           C
ATOM      8  N   UNL     1      -3.124  13.885   7.840  1.00  0.00           N
ATOM      9  H   UNL     1      -2.898  12.955   8.153  1.00  0.00           H
ATOM     10  O   UNL     1      -4.792  15.400   7.458  1.00  0.00           O
ATOM     11  C   UNL     1      -3.689  12.649  10.554  1.00  0.00           C
ATOM     12  C   UNL     1      -5.055  12.777   9.946  1.00  0.00           C
ATOM     13  C   UNL     1      -5.357  13.566   8.821  1.00  0.00           C
ATOM     14  C   UNL     1      -6.694  13.633   8.428  1.00  0.00           C
ATOM     15  N   UNL     1      -7.713  12.950   9.011  1.00  0.00           N
ATOM     16  C   UNL     1      -7.405  12.169  10.066  1.00  0.00           C
ATOM     17  C   UNL     1      -8.520  11.365  10.668  1.00  0.00           C
ATOM     18  C   UNL     1      -6.107  12.069  10.560  1.00  0.00           C
ATOM     19  C   UNL     1      -0.360  15.494   2.509  1.00  0.00           C
ATOM     20  C   UNL     1       0.628  14.509   1.893  1.00  0.00           C
ATOM     21  C   UNL     1      -0.069  13.480   1.023  1.00  0.00           C
ATOM     22  N   UNL     1       0.795  12.561   0.466  1.00  0.00           N
ATOM     23  H   UNL     1       1.796  12.733   0.491  1.00  0.00           H
ATOM     24  O   UNL     1      -1.282  13.451   0.839  1.00  0.00           O
ATOM     25  C   UNL     1       0.333  11.496  -0.404  1.00  0.00           C
ATOM     26  C   UNL     1       0.168  11.931  -1.856  1.00  0.00           C
ATOM     27  C   UNL     1       1.492  12.270  -2.503  1.00  0.00           C
ATOM     28  N   UNL     1       1.405  12.598  -3.825  1.00  0.00           N
ATOM     29  H   UNL     1       2.257  12.862  -4.305  1.00  0.00           H
ATOM     30  H   UNL     1       0.528  12.668  -4.322  1.00  0.00           H
ATOM     31  O   UNL     1       2.572  12.268  -1.926  1.00  0.00           O
ENDROOT
TORSDOF 0
ENDMDL
