ROOT
ATOM      1  C   UNL     1      -1.967  -5.003  -0.255  1.00  0.00           C
ATOM      2  N   UNL     1      -3.202  -4.977  -0.860  1.00  0.00           N
ATOM      3  H   UNL     1      -3.620  -4.089  -1.119  1.00  0.00           H
ATOM      4  O   UNL     1      -1.488  -6.018   0.243  1.00  0.00           O
ATOM      5  C   UNL     1      -1.274  -3.655  -0.207  1.00  0.00           C
ATOM      6  C   UNL     1       0.240  -3.833  -0.172  1.00  0.00           C
ATOM      7  C   UNL     1       1.370  -1.849  -1.153  1.00  0.00           C
ATOM      8  N   UNL     1       0.943  -2.561  -0.052  1.00  0.00           N
ATOM      9  H   UNL     1       0.971  -2.136   0.861  1.00  0.00           H
ATOM     10  O   UNL     1       1.163  -2.227  -2.302  1.00  0.00           O
ATOM     11  C   UNL     1       3.275  -1.129   1.262  1.00  0.00           C
ATOM     12  C   UNL     1       2.876  -0.192   0.159  1.00  0.00           C
ATOM     13  C   UNL     1       2.042  -0.538  -0.919  1.00  0.00           C
ATOM     14  C   UNL     1       1.829   0.432  -1.899  1.00  0.00           C
ATOM     15  N   UNL     1       2.317   1.699  -1.860  1.00  0.00           N
ATOM     16  C   UNL     1       3.086   2.030  -0.803  1.00  0.00           C
ATOM     17  C   UNL     1       3.570   3.448  -0.729  1.00  0.00           C
ATOM     18  C   UNL     1       3.390   1.119   0.205  1.00  0.00           C
ATOM     19  C   UNL     1      -4.035  -6.158  -1.010  1.00  0.00           C
ATOM     20  C   UNL     1      -4.995  -6.372   0.156  1.00  0.00           C
ATOM     21  C   UNL     1      -6.027  -5.263   0.248  1.00  0.00           C
ATOM     22  N   UNL     1      -6.899  -5.415   1.305  1.00  0.00           N
ATOM     23  H   UNL     1      -6.938  -6.301   1.800  1.00  0.00           H
ATOM     24  O   UNL     1      -6.078  -4.313  -0.527  1.00  0.00           O
ATOM     25  C   UNL     1      -7.965  -4.467   1.568  1.00  0.00           C
ATOM     26  C   UNL     1      -9.222  -4.728   0.746  1.00  0.00           C
ATOM     27  C   UNL     1      -9.896  -6.025   1.131  1.00  0.00           C
ATOM     28  N   UNL     1     -11.065  -6.271   0.471  1.00  0.00           N
ATOM     29  H   UNL     1     -11.547  -7.139   0.667  1.00  0.00           H
ATOM     30  H   UNL     1     -11.427  -5.670  -0.257  1.00  0.00           H
ATOM     31  O   UNL     1      -9.462  -6.820   1.956  1.00  0.00           O
ENDROOT
TORSDOF 0