REMARK  Name = *****
REMARK  9 active torsions:
REMARK  status: ('A' for Active; 'I' for Inactive)
REMARK    1  A    between atoms: C_1  and  C_2
REMARK    2  A    between atoms: C_5  and  C_8
REMARK    3  A    between atoms: N_10  and  CA_11
REMARK    4  A    between atoms: CA_11  and  CB_12
REMARK    5  A    between atoms: CA_11  and  C_17
REMARK    6  A    between atoms: CB_12  and  CG_13
REMARK    7  A    between atoms: CG_13  and  CD_14
REMARK    8  A    between atoms: CD_14  and  OE2_16
REMARK    9  A    between atoms: C_17  and  OXT_19
REMARK                            x       y       z     vdW  Elec       q    Type
REMARK                         _______ _______ _______ _____ _____    ______ ____
ROOT
ATOM      1  C   UNK A   0       6.731   0.009  -0.965  0.00  0.00    +0.245 C 
ATOM      2  N   GLU A   1       7.557  -1.031  -0.613  0.00  0.00    -0.298 N 
ATOM      3  H   GLU A   1       7.163  -1.890  -0.243  0.00  0.00    +0.150 HD
ATOM      4  O   UNK A   0       7.135   0.998  -1.567  0.00  0.00    -0.270 OA
ENDROOT
BRANCH   1   9
ATOM      5  C   UNK A   0       1.068  -0.782  -0.074  0.00  0.00    +0.044 C 
ATOM      6  C   UNK A   0       2.534  -0.499  -0.222  0.00  0.00    -0.050 A 
ATOM      7  C   UNK A   0       3.462  -1.193   0.564  0.00  0.00    +0.004 A 
ATOM      8  C   UNK A   0       4.833  -1.010   0.370  0.00  0.00    +0.013 A 
ATOM      9  C   UNK A   0       5.291  -0.138  -0.625  0.00  0.00    +0.037 A 
ATOM     10  C   UNK A   0       4.363   0.603  -1.368  0.00  0.00    +0.013 A 
ATOM     11  C   UNK A   0       2.993   0.421  -1.171  0.00  0.00    +0.004 A 
ENDBRANCH   1   9
BRANCH   2  12
ATOM     12  CA  GLU A   1       8.967  -1.071  -0.996  0.00  0.00    +0.182 C 
BRANCH  12  13
ATOM     13  C   GLU A   1       9.473  -2.482  -0.671  0.00  0.00    +0.325 C 
ATOM     14  O   GLU A   1       9.250  -3.047   0.393  0.00  0.00    -0.249 OA
BRANCH  13  15
ATOM     15  OXT GLU A   1      10.167  -3.072  -1.667  0.00  0.00    -0.479 OA
ATOM     16  HXT GLU A   1      10.325  -2.509  -2.459  0.00  0.00    +0.295 HD
ENDBRANCH  13  15
ENDBRANCH  12  13
BRANCH  12  17
ATOM     17  CB  GLU A   1       9.770  -0.004  -0.232  0.00  0.00    +0.045 C 
BRANCH  17  18
ATOM     18  CG  GLU A   1      11.262   0.013  -0.542  0.00  0.00    +0.123 C 
BRANCH  18  19
ATOM     19  CD  GLU A   1      11.488   0.224  -2.009  0.00  0.00    +0.305 C 
ATOM     20  OE1 GLU A   1      11.424  -0.691  -2.819  0.00  0.00    -0.251 OA
BRANCH  19  21
ATOM     21  OE2 GLU A   1      11.660   1.514  -2.362  0.00  0.00    -0.481 OA
ATOM     22  HE2 GLU A   1      11.594   2.155  -1.625  0.00  0.00    +0.295 HD
ENDBRANCH  19  21
ENDBRANCH  18  19
ENDBRANCH  17  18
ENDBRANCH  12  17
ENDBRANCH   2  12
TORSDOF 8
