REMARK  Name = *****
REMARK  4 active torsions:
REMARK  status: ('A' for Active; 'I' for Inactive)
REMARK    1  A    between atoms: C_1  and  C_2
REMARK    2  A    between atoms: N_9  and  C_23
REMARK    3  A    between atoms: C_15  and  O_22
REMARK    4  A    between atoms: C_19  and  O_20
REMARK                            x       y       z     vdW  Elec       q    Type
REMARK                         _______ _______ _______ _____ _____    ______ ____
ROOT
ATOM      1  C   UNL     1       0.906   0.129   0.243  0.00  0.00    +0.013 C 
ATOM      2  C   UNL     1       2.381  -0.117   0.610  0.00  0.00    +0.018 C 
ATOM      3  C   UNL     1       2.539   0.149   2.185  0.00  0.00    +0.046 C 
ATOM      4  C   UNL     1       3.951  -0.050   2.838  0.00  0.00    -0.005 A 
ATOM      5  C   UNL     1       4.635  -1.116   2.325  0.00  0.00    +0.129 A 
ATOM      6  C   UNL     1       5.127  -0.842   1.069  0.00  0.00    +0.064 A 
ATOM      7  C   UNL     1       5.689   0.440   0.901  0.00  0.00    +0.126 A 
ATOM      8  C   UNL     1       5.628   1.356   1.951  0.00  0.00    +0.046 A 
ATOM      9  C   UNL     1       4.484  -1.606  -0.075  0.00  0.00    +0.174 C 
ATOM     10  N   UNL     1       4.890  -3.007  -0.163  0.00  0.00    -0.218 N 
ATOM     11  N   UNL     1       3.981  -4.013   0.114  0.00  0.00    -0.226 N 
ATOM     12  C   UNL     1       4.686  -5.207   0.292  0.00  0.00    +0.353 A 
ATOM     13  N   UNL     1       6.041  -4.871   0.362  0.00  0.00    -0.212 N 
ATOM     14  O   UNL     1       4.145  -6.303   0.322  0.00  0.00    -0.244 OA
ATOM     15  C   UNL     1       2.654  -3.914  -0.435  0.00  0.00    +0.174 C 
ATOM     16  C   UNL     1       2.122  -2.541  -0.156  0.00  0.00    -0.002 C 
ATOM     17  C   UNL     1       6.177  -3.516   0.032  0.00  0.00    +0.353 A 
ATOM     18  O   UNL     1       7.192  -2.838  -0.048  0.00  0.00    -0.244 OA
ATOM     19  C   UNL     1       4.715   1.101   2.962  0.00  0.00    +0.011 A 
ATOM     20  C   UNL     1       2.923  -1.476   0.073  0.00  0.00    -0.040 C 
ENDROOT
BRANCH  13  21
ATOM     21  C   UNL     1       7.090  -5.758   0.742  0.00  0.00    +0.056 A 
ATOM     22  C   UNL     1       8.421  -5.315   0.881  0.00  0.00    +0.026 A 
ATOM     23  C   UNL     1       9.444  -6.170   1.312  0.00  0.00    +0.002 A 
ATOM     24  C   UNL     1       9.165  -7.500   1.608  0.00  0.00    +0.000 A 
ATOM     25  C   UNL     1       7.867  -7.971   1.472  0.00  0.00    +0.002 A 
ATOM     26  C   UNL     1       6.848  -7.107   1.049  0.00  0.00    +0.026 A 
ENDBRANCH  13  21
BRANCH   5  27
ATOM     27  O   UNL     1       4.314  -2.367   2.736  0.00  0.00    -0.506 OA
ATOM     28  H   UNL     1       5.160  -2.777   2.986  0.00  0.00    +0.292 HD
ENDBRANCH   5  27
BRANCH   7  29
ATOM     29  O   UNL     1       6.128   0.925  -0.295  0.00  0.00    -0.506 OA
ATOM     30  H   UNL     1       5.404   0.843  -0.939  0.00  0.00    +0.292 HD
ENDBRANCH   7  29
TORSDOF 3
