REMARK  Name = *****
REMARK  8 active torsions:
REMARK  status: ('A' for Active; 'I' for Inactive)
REMARK    1  A    between atoms: C_1  and  C_2
REMARK    2  A    between atoms: C_2  and  N_3
REMARK    3  A    between atoms: N_6  and  C_9
REMARK    4  A    between atoms: C_15  and  C_18
REMARK    5  A    between atoms: C_25  and  C_27
REMARK    6  A    between atoms: C_29  and  O_34
REMARK    7  A    between atoms: C_30  and  O_33
REMARK    8  A    between atoms: O_34  and  C_35
REMARK                            x       y       z     vdW  Elec       q    Type
REMARK                         _______ _______ _______ _____ _____    ______ ____
ROOT
ATOM      1  C   UNL     1       8.954  -7.931   1.626  0.00  0.00    +0.005 A 
ATOM      2  C   UNL     1      10.074  -7.155   1.282  0.00  0.00    +0.012 A 
ATOM      3  C   UNL     1      11.375  -7.534   1.650  0.00  0.00    +0.030 A 
ATOM      4  C   UNL     1      11.551  -8.732   2.352  0.00  0.00    +0.089 A 
ATOM      5  N   UNL     1      12.703  -9.323   2.801  0.00  0.00    -0.228 NA
ATOM      6  C   UNL     1      12.342 -10.466   3.360  0.00  0.00    +0.139 A 
ATOM      7  N   UNL     1      10.970 -10.595   3.308  0.00  0.00    -0.338 N 
ATOM      8  H   UNL     1      10.437 -11.377   3.654  0.00  0.00    +0.167 HD
ATOM      9  C   UNL     1      10.444  -9.506   2.661  0.00  0.00    +0.067 A 
ATOM     10  C   UNL     1       9.135  -9.144   2.320  0.00  0.00    +0.038 A 
ENDROOT
BRANCH   1  15
ATOM     11  C   UNL     1       5.389  -3.921   0.597  0.00  0.00    +0.032 A 
ATOM     12  C   UNL     1       6.716  -3.771   1.036  0.00  0.00    +0.024 A 
ATOM     13  C   UNL     1       7.567  -4.857   1.300  0.00  0.00    +0.014 A 
ATOM     14  C   UNL     1       7.085  -6.165   1.124  0.00  0.00    +0.028 A 
ATOM     15  C   UNL     1       7.598  -7.498   1.255  0.00  0.00    +0.100 A 
ATOM     16  N   UNL     1       6.636  -8.402   0.993  0.00  0.00    -0.173 NA
ATOM     17  N   UNL     1       5.565  -7.665   0.665  0.00  0.00    -0.276 N 
ATOM     18  H   UNL     1       4.711  -8.148   0.411  0.00  0.00    +0.189 HD
ATOM     19  C   UNL     1       5.766  -6.316   0.724  0.00  0.00    +0.068 A 
ATOM     20  C   UNL     1       4.910  -5.236   0.457  0.00  0.00    +0.050 A 
BRANCH  11  24
ATOM     21  N   UNL     1       3.042  -0.975  -1.400  0.00  0.00    -0.300 NA
ATOM     22  C   UNL     1       2.515  -2.290  -0.946  0.00  0.00    +0.103 C 
ATOM     23  C   UNL     1       3.131  -2.827   0.372  0.00  0.00    +0.120 C 
ATOM     24  N   UNL     1       4.603  -2.821   0.305  0.00  0.00    -0.327 N 
ATOM     25  C   UNL     1       5.194  -1.550  -0.152  0.00  0.00    +0.120 C 
ATOM     26  C   UNL     1       4.518  -1.092  -1.465  0.00  0.00    +0.103 C 
BRANCH  21  28
ATOM     27  C   UNL     1       3.062   1.492  -0.914  0.00  0.00    +0.020 C 
ATOM     28  C   UNL     1       2.579   0.103  -0.511  0.00  0.00    +0.081 C 
ENDBRANCH  21  28
ENDBRANCH  11  24
ENDBRANCH   1  15
BRANCH   6  29
ATOM     29  C   UNL     1      13.263 -11.472   3.909  0.00  0.00    +0.021 A 
ATOM     30  C   UNL     1      12.819 -12.684   4.458  0.00  0.00    +0.015 A 
ATOM     31  C   UNL     1      13.733 -13.639   4.910  0.00  0.00    +0.050 A 
ATOM     32  C   UNL     1      15.093 -13.383   4.806  0.00  0.00    +0.159 A 
ATOM     33  C   UNL     1      15.572 -12.180   4.280  0.00  0.00    +0.162 A 
ATOM     34  C   UNL     1      14.651 -11.226   3.844  0.00  0.00    +0.060 A 
BRANCH  32  35
ATOM     35  O   UNL     1      15.968 -14.350   5.222  0.00  0.00    -0.503 OA
ATOM     36  H   UNL     1      16.855 -13.985   5.032  0.00  0.00    +0.292 HD
ENDBRANCH  32  35
BRANCH  33  37
ATOM     37  O   UNL     1      16.938 -12.070   4.237  0.00  0.00    -0.491 OA
ATOM     38  C   UNL     1      17.463 -10.860   3.701  0.00  0.00    +0.277 C 
ENDBRANCH  33  37
ENDBRANCH   6  29
TORSDOF 6
