REMARK  Name = *****
REMARK  9 active torsions:
REMARK  status: ('A' for Active; 'I' for Inactive)
REMARK    1  A    between atoms: C_1  and  C_2
REMARK    2  A    between atoms: C_4  and  C_21
REMARK    3  A    between atoms: C_7  and  C_8
REMARK    4  A    between atoms: N_10  and  C_11
REMARK    5  A    between atoms: C_11  and  C_12
REMARK    6  A    between atoms: C_12  and  C_13
REMARK    7  A    between atoms: N_15  and  C_16
REMARK    8  A    between atoms: C_16  and  C_17
REMARK    9  A    between atoms: C_17  and  C_18
REMARK                            x       y       z     vdW  Elec       q    Type
REMARK                         _______ _______ _______ _____ _____    ______ ____
ROOT
ATOM      1  C   UNL     1       2.450  -2.437   0.051  0.00  0.00    +0.246 C 
ATOM      2  N   UNL     1       1.083  -2.526  -0.081  0.00  0.00    -0.311 N 
ATOM      3  H   UNL     1       0.546  -1.693  -0.276  0.00  0.00    +0.149 HD
ATOM      4  O   UNL     1       3.193  -3.412   0.093  0.00  0.00    -0.270 OA
ENDROOT
BRANCH   1   7
ATOM      5  C   UNL     1       1.182   0.100   1.412  0.00  0.00    +0.044 C 
ATOM      6  C   UNL     1       2.481   0.082   0.657  0.00  0.00    -0.035 A 
ATOM      7  C   UNL     1       3.041  -1.064   0.059  0.00  0.00    +0.058 A 
ATOM      8  C   UNL     1       4.290  -0.932  -0.557  0.00  0.00    +0.124 A 
ATOM      9  N   UNL     1       4.993   0.228  -0.662  0.00  0.00    -0.250 NA
ATOM     10  C   UNL     1       4.419   1.320  -0.097  0.00  0.00    +0.125 A 
ATOM     11  C   UNL     1       3.194   1.291   0.561  0.00  0.00    +0.037 A 
BRANCH  10  12
ATOM     12  C   UNL     1       5.156   2.620  -0.212  0.00  0.00    +0.260 C 
ATOM     13  N   UNL     1       6.356   2.570  -0.866  0.00  0.00    -0.324 N 
ATOM     14  H   UNL     1       6.895   3.416  -0.981  0.00  0.00    +0.145 HD
ATOM     15  H   UNL     1       6.699   1.688  -1.230  0.00  0.00    +0.145 HD
ATOM     16  O   UNL     1       4.714   3.669   0.241  0.00  0.00    -0.269 OA
ENDBRANCH  10  12
ENDBRANCH   1   7
BRANCH   2  17
ATOM     17  C   UNL     1       0.374  -3.792  -0.148  0.00  0.00    +0.113 C 
BRANCH  17  18
ATOM     18  C   UNL     1      -0.556  -4.011   1.038  0.00  0.00    +0.114 C 
BRANCH  18  19
ATOM     19  C   UNL     1      -1.584  -2.911   1.184  0.00  0.00    +0.214 C 
ATOM     20  N   UNL     1      -2.523  -2.853   0.182  0.00  0.00    -0.315 N 
ATOM     21  H   UNL     1      -2.403  -3.407  -0.660  0.00  0.00    +0.149 HD
ATOM     22  O   UNL     1      -1.568  -2.120   2.124  0.00  0.00    -0.276 OA
BRANCH  20  23
ATOM     23  C   UNL     1      -3.541  -1.817   0.133  0.00  0.00    +0.113 C 
BRANCH  23  24
ATOM     24  C   UNL     1      -3.033  -0.502  -0.448  0.00  0.00    +0.114 C 
BRANCH  24  25
ATOM     25  C   UNL     1      -2.635  -0.635  -1.900  0.00  0.00    +0.212 C 
ATOM     26  N   UNL     1      -2.213   0.529  -2.477  0.00  0.00    -0.329 N 
ATOM     27  H   UNL     1      -1.970   0.505  -3.462  0.00  0.00    +0.145 HD
ATOM     28  H   UNL     1      -2.273   1.426  -2.019  0.00  0.00    +0.145 HD
ATOM     29  O   UNL     1      -2.645  -1.685  -2.532  0.00  0.00    -0.276 OA
ENDBRANCH  24  25
ENDBRANCH  23  24
ENDBRANCH  20  23
ENDBRANCH  18  19
ENDBRANCH  17  18
ENDBRANCH   2  17
TORSDOF 8
