REMARK  Name = *****
REMARK  8 active torsions:
REMARK  status: ('A' for Active; 'I' for Inactive)
REMARK    1  A    between atoms: C_1  and  O_2
REMARK    2  A    between atoms: O_2  and  C_3
REMARK    3  A    between atoms: C_5  and  O_21
REMARK    4  A    between atoms: C_6  and  C_9
REMARK    5  A    between atoms: C_10  and  C_11
REMARK    6  A    between atoms: C_11  and  C_13
REMARK    7  A    between atoms: C_15  and  O_20
REMARK    8  A    between atoms: C_16  and  O_19
REMARK                            x       y       z     vdW  Elec       q    Type
REMARK                         _______ _______ _______ _____ _____    ______ ____
ROOT
ATOM      1  C   UNL     1       5.313   4.880   0.215  0.00  0.00    +0.015 C 
ATOM      2  C   UNL     1       6.650   4.951   0.319  0.00  0.00    +0.052 C 
ENDROOT
BRANCH   1   6
ATOM      3  C   UNL     1       2.982   1.261   0.316  0.00  0.00    +0.124 A 
ATOM      4  C   UNL     1       4.266   1.266  -0.230  0.00  0.00    +0.046 A 
ATOM      5  C   UNL     1       5.034   2.434  -0.248  0.00  0.00    +0.015 A 
ATOM      6  C   UNL     1       4.537   3.627   0.291  0.00  0.00    +0.017 A 
ATOM      7  C   UNL     1       3.241   3.610   0.834  0.00  0.00    +0.127 A 
ATOM      8  C   UNL     1       2.470   2.439   0.858  0.00  0.00    +0.091 A 
BRANCH   3  10
ATOM      9  C   UNL     1       1.012  -0.008   0.745  0.00  0.00    +0.277 C 
ATOM     10  O   UNL     1       2.341   0.056   0.244  0.00  0.00    -0.495 OA
ENDBRANCH   3  10
BRANCH   7  11
ATOM     11  O   UNL     1       2.720   4.767   1.356  0.00  0.00    -0.506 OA
ATOM     12  H   UNL     1       1.813   4.606   1.656  0.00  0.00    +0.292 HD
ENDBRANCH   7  11
ENDBRANCH   1   6
BRANCH   2  13
ATOM     13  C   UNL     1       7.347   6.261   0.182  0.00  0.00    +0.186 C 
ATOM     14  O   UNL     1       6.811   7.238  -0.328  0.00  0.00    -0.287 OA
BRANCH  13  15
ATOM     15  C   UNL     1       8.768   6.335   0.619  0.00  0.00    +0.025 A 
ATOM     16  C   UNL     1       9.256   5.565   1.688  0.00  0.00    +0.015 A 
ATOM     17  C   UNL     1      10.597   5.663   2.069  0.00  0.00    +0.050 A 
ATOM     18  C   UNL     1      11.435   6.532   1.386  0.00  0.00    +0.158 A 
ATOM     19  C   UNL     1      10.954   7.312   0.337  0.00  0.00    +0.159 A 
ATOM     20  C   UNL     1       9.621   7.227  -0.050  0.00  0.00    +0.060 A 
BRANCH  18  21
ATOM     21  O   UNL     1      12.745   6.619   1.758  0.00  0.00    -0.503 OA
ATOM     22  H   UNL     1      13.131   7.283   1.151  0.00  0.00    +0.292 HD
ENDBRANCH  18  21
BRANCH  19  23
ATOM     23  O   UNL     1      11.838   8.150  -0.286  0.00  0.00    -0.503 OA
ATOM     24  H   UNL     1      11.360   8.638  -0.980  0.00  0.00    +0.292 HD
ENDBRANCH  19  23
ENDBRANCH  13  15
ENDBRANCH   2  13
TORSDOF 7
