MODEL 1
REMARK VINA RESULT:    -6.439      0.000      0.000
REMARK INTER + INTRA:          -6.439
REMARK INTER:                  -6.439
REMARK INTRA:                   0.000
REMARK UNBOUND:                 0.000
ROOT
ATOM      1  C   UNL     1       7.124  13.944  10.904  1.00  0.00           C
ATOM      2  N   UNL     1       8.030  13.135  10.260  1.00  0.00           N
ATOM      3  H   UNL     1       7.955  12.134  10.127  1.00  0.00           H
ATOM      4  C   UNL     1       9.110  13.892   9.885  1.00  0.00           C
ATOM      5  C   UNL     1      10.308  13.578   9.236  1.00  0.00           C
ATOM      6  C   UNL     1      10.609  12.200   8.821  1.00  0.00           C
ATOM      7  O   UNL     1       9.805  11.302   9.044  1.00  0.00           O
ATOM      8  C   UNL     1      11.890  11.930   8.135  1.00  0.00           C
ATOM      9  C   UNL     1      12.195  10.626   7.724  1.00  0.00           C
ATOM     10  C   UNL     1      13.399  10.365   7.067  1.00  0.00           C
ATOM     11  C   UNL     1      14.299  11.403   6.821  1.00  0.00           C
ATOM     12  C   UNL     1      13.998  12.702   7.232  1.00  0.00           C
ATOM     13  C   UNL     1      12.790  12.967   7.892  1.00  0.00           C
ATOM     14  C   UNL     1      12.485  14.347   8.323  1.00  0.00           C
ATOM     15  O   UNL     1      13.284  15.253   8.114  1.00  0.00           O
ATOM     16  C   UNL     1      11.206  14.624   9.007  1.00  0.00           C
ATOM     17  C   UNL     1      10.907  15.931   9.421  1.00  0.00           C
ATOM     18  C   UNL     1       9.700  16.217  10.078  1.00  0.00           C
ATOM     19  C   UNL     1       8.794  15.173  10.313  1.00  0.00           C
ATOM     20  N   UNL     1       7.577  15.187  10.943  1.00  0.00           N
ATOM     21  C   UNL     1       2.444  11.880  13.595  1.00  0.00           C
ATOM     22  C   UNL     1       3.612  12.446  12.843  1.00  0.00           C
ATOM     23  C   UNL     1       4.283  13.568  13.339  1.00  0.00           C
ATOM     24  C   UNL     1       5.407  14.069  12.678  1.00  0.00           C
ATOM     25  C   UNL     1       5.893  13.448  11.520  1.00  0.00           C
ATOM     26  C   UNL     1       5.197  12.347  11.005  1.00  0.00           C
ATOM     27  C   UNL     1       4.066  11.850  11.661  1.00  0.00           C
ENDROOT
TORSDOF 0
ENDMDL
MODEL 2
REMARK VINA RESULT:    -6.320      9.945     13.631
REMARK INTER + INTRA:          -6.320
REMARK INTER:                  -6.320
REMARK INTRA:                   0.000
REMARK UNBOUND:                 0.000
ROOT
ATOM      1  C   UNL     1       1.788  15.500   2.466  1.00  0.00           C
ATOM      2  N   UNL     1       1.194  15.229   3.677  1.00  0.00           N
ATOM      3  H   UNL     1       1.664  15.113   4.566  1.00  0.00           H
ATOM      4  C   UNL     1      -0.153  15.058   3.480  1.00  0.00           C
ATOM      5  C   UNL     1      -1.204  14.743   4.346  1.00  0.00           C
ATOM      6  C   UNL     1      -0.968  14.516   5.779  1.00  0.00           C
ATOM      7  O   UNL     1       0.168  14.598   6.234  1.00  0.00           O
ATOM      8  C   UNL     1      -2.120  14.191   6.645  1.00  0.00           C
ATOM      9  C   UNL     1      -1.919  13.977   8.015  1.00  0.00           C
ATOM     10  C   UNL     1      -3.004  13.679   8.841  1.00  0.00           C
ATOM     11  C   UNL     1      -4.289  13.593   8.302  1.00  0.00           C
ATOM     12  C   UNL     1      -4.490  13.803   6.938  1.00  0.00           C
ATOM     13  C   UNL     1      -3.403  14.102   6.106  1.00  0.00           C
ATOM     14  C   UNL     1      -3.631  14.321   4.662  1.00  0.00           C
ATOM     15  O   UNL     1      -4.759  14.234   4.192  1.00  0.00           O
ATOM     16  C   UNL     1      -2.483  14.648   3.791  1.00  0.00           C
ATOM     17  C   UNL     1      -2.689  14.857   2.419  1.00  0.00           C
ATOM     18  C   UNL     1      -1.614  15.165   1.571  1.00  0.00           C
ATOM     19  C   UNL     1      -0.326  15.261   2.119  1.00  0.00           C
ATOM     20  N   UNL     1       0.874  15.523   1.511  1.00  0.00           N
ATOM     21  C   UNL     1       7.521  15.752   1.780  1.00  0.00           C
ATOM     22  C   UNL     1       6.031  15.763   1.948  1.00  0.00           C
ATOM     23  C   UNL     1       5.210  15.278   0.925  1.00  0.00           C
ATOM     24  C   UNL     1       3.824  15.229   1.092  1.00  0.00           C
ATOM     25  C   UNL     1       3.232  15.648   2.291  1.00  0.00           C
ATOM     26  C   UNL     1       4.053  16.168   3.300  1.00  0.00           C
ATOM     27  C   UNL     1       5.441  16.225   3.130  1.00  0.00           C
ENDROOT
TORSDOF 0
ENDMDL
MODEL 3
REMARK VINA RESULT:    -5.765     10.686     11.556
REMARK INTER + INTRA:          -5.765
REMARK INTER:                  -5.765
REMARK INTRA:                   0.000
REMARK UNBOUND:                 0.000
ROOT
ATOM      1  C   UNL     1      -0.214  14.664   4.786  1.00  0.00           C
ATOM      2  N   UNL     1      -0.214  14.300   3.460  1.00  0.00           N
ATOM      3  H   UNL     1      -0.955  13.815   2.969  1.00  0.00           H
ATOM      4  C   UNL     1       0.999  14.631   2.911  1.00  0.00           C
ATOM      5  C   UNL     1       1.536  14.463   1.631  1.00  0.00           C
ATOM      6  C   UNL     1       0.766  13.813   0.562  1.00  0.00           C
ATOM      7  O   UNL     1      -0.369  13.403   0.784  1.00  0.00           O
ATOM      8  C   UNL     1       1.385  13.668  -0.772  1.00  0.00           C
ATOM      9  C   UNL     1       0.667  13.057  -1.808  1.00  0.00           C
ATOM     10  C   UNL     1       1.243  12.926  -3.072  1.00  0.00           C
ATOM     11  C   UNL     1       2.534  13.401  -3.305  1.00  0.00           C
ATOM     12  C   UNL     1       3.252  14.006  -2.273  1.00  0.00           C
ATOM     13  C   UNL     1       2.677  14.140  -1.002  1.00  0.00           C
ATOM     14  C   UNL     1       3.450  14.783   0.082  1.00  0.00           C
ATOM     15  O   UNL     1       4.588  15.188  -0.125  1.00  0.00           O
ATOM     16  C   UNL     1       2.835  14.932   1.416  1.00  0.00           C
ATOM     17  C   UNL     1       3.560  15.540   2.452  1.00  0.00           C
ATOM     18  C   UNL     1       2.999  15.689   3.730  1.00  0.00           C
ATOM     19  C   UNL     1       1.696  15.219   3.955  1.00  0.00           C
ATOM     20  N   UNL     1       0.943  15.225   5.100  1.00  0.00           N
ATOM     21  C   UNL     1      -4.458  13.214   8.431  1.00  0.00           C
ATOM     22  C   UNL     1      -3.381  13.663   7.489  1.00  0.00           C
ATOM     23  C   UNL     1      -2.058  13.749   7.933  1.00  0.00           C
ATOM     24  C   UNL     1      -1.037  14.110   7.049  1.00  0.00           C
ATOM     25  C   UNL     1      -1.317  14.376   5.703  1.00  0.00           C
ATOM     26  C   UNL     1      -2.648  14.327   5.270  1.00  0.00           C
ATOM     27  C   UNL     1      -3.672  13.973   6.156  1.00  0.00           C
ENDROOT
TORSDOF 0
ENDMDL
MODEL 4
REMARK VINA RESULT:    -5.761     10.502     11.975
REMARK INTER + INTRA:          -5.761
REMARK INTER:                  -5.761
REMARK INTRA:                   0.000
REMARK UNBOUND:                 0.000
ROOT
ATOM      1  C   UNL     1      -2.687  14.100   4.367  1.00  0.00           C
ATOM      2  N   UNL     1      -1.374  14.509   4.379  1.00  0.00           N
ATOM      3  H   UNL     1      -0.878  14.919   5.159  1.00  0.00           H
ATOM      4  C   UNL     1      -0.850  14.345   3.121  1.00  0.00           C
ATOM      5  C   UNL     1       0.408  14.622   2.577  1.00  0.00           C
ATOM      6  C   UNL     1       1.477  15.213   3.393  1.00  0.00           C
ATOM      7  O   UNL     1       1.274  15.476   4.574  1.00  0.00           O
ATOM      8  C   UNL     1       2.787  15.479   2.762  1.00  0.00           C
ATOM      9  C   UNL     1       3.823  16.036   3.523  1.00  0.00           C
ATOM     10  C   UNL     1       5.065  16.281   2.937  1.00  0.00           C
ATOM     11  C   UNL     1       5.276  15.972   1.592  1.00  0.00           C
ATOM     12  C   UNL     1       4.244  15.420   0.832  1.00  0.00           C
ATOM     13  C   UNL     1       2.995  15.173   1.418  1.00  0.00           C
ATOM     14  C   UNL     1       1.911  14.589   0.601  1.00  0.00           C
ATOM     15  O   UNL     1       2.098  14.329  -0.583  1.00  0.00           O
ATOM     16  C   UNL     1       0.601  14.319   1.226  1.00  0.00           C
ATOM     17  C   UNL     1      -0.435  13.765   0.459  1.00  0.00           C
ATOM     18  C   UNL     1      -1.691  13.505   1.030  1.00  0.00           C
ATOM     19  C   UNL     1      -1.894  13.807   2.384  1.00  0.00           C
ATOM     20  N   UNL     1      -3.015  13.670   3.160  1.00  0.00           N
ATOM     21  C   UNL     1      -6.253  14.901   8.844  1.00  0.00           C
ATOM     22  C   UNL     1      -5.329  14.617   7.698  1.00  0.00           C
ATOM     23  C   UNL     1      -5.807  14.675   6.385  1.00  0.00           C
ATOM     24  C   UNL     1      -4.942  14.470   5.307  1.00  0.00           C
ATOM     25  C   UNL     1      -3.580  14.221   5.519  1.00  0.00           C
ATOM     26  C   UNL     1      -3.112  14.126   6.835  1.00  0.00           C
ATOM     27  C   UNL     1      -3.978  14.323   7.916  1.00  0.00           C
ENDROOT
TORSDOF 0
ENDMDL
MODEL 5
REMARK VINA RESULT:    -5.733     12.546     12.909
REMARK INTER + INTRA:          -5.733
REMARK INTER:                  -5.733
REMARK INTRA:                   0.000
REMARK UNBOUND:                 0.000
ROOT
ATOM      1  C   UNL     1       1.489  15.293   1.943  1.00  0.00           C
ATOM      2  N   UNL     1       1.248  14.657   0.748  1.00  0.00           N
ATOM      3  H   UNL     1       0.461  14.058   0.532  1.00  0.00           H
ATOM      4  C   UNL     1       2.297  14.901  -0.102  1.00  0.00           C
ATOM      5  C   UNL     1       2.577  14.483  -1.406  1.00  0.00           C
ATOM      6  C   UNL     1       1.656  13.599  -2.136  1.00  0.00           C
ATOM      7  O   UNL     1       0.622  13.212  -1.600  1.00  0.00           O
ATOM      8  C   UNL     1       2.003  13.195  -3.514  1.00  0.00           C
ATOM      9  C   UNL     1       1.137  12.358  -4.230  1.00  0.00           C
ATOM     10  C   UNL     1       1.454  11.980  -5.536  1.00  0.00           C
ATOM     11  C   UNL     1       2.634  12.435  -6.128  1.00  0.00           C
ATOM     12  C   UNL     1       3.499  13.265  -5.415  1.00  0.00           C
ATOM     13  C   UNL     1       3.183  13.647  -4.104  1.00  0.00           C
ATOM     14  C   UNL     1       4.109  14.526  -3.359  1.00  0.00           C
ATOM     15  O   UNL     1       5.150  14.913  -3.880  1.00  0.00           O
ATOM     16  C   UNL     1       3.767  14.935  -1.982  1.00  0.00           C
ATOM     17  C   UNL     1       4.639  15.769  -1.267  1.00  0.00           C
ATOM     18  C   UNL     1       4.338  16.167   0.045  1.00  0.00           C
ATOM     19  C   UNL     1       3.146  15.717   0.631  1.00  0.00           C
ATOM     20  N   UNL     1       2.640  15.941   1.884  1.00  0.00           N
ATOM     21  C   UNL     1      -1.815  14.518   6.621  1.00  0.00           C
ATOM     22  C   UNL     1      -0.986  14.790   5.401  1.00  0.00           C
ATOM     23  C   UNL     1       0.390  15.007   5.527  1.00  0.00           C
ATOM     24  C   UNL     1       1.182  15.204   4.393  1.00  0.00           C
ATOM     25  C   UNL     1       0.618  15.172   3.111  1.00  0.00           C
ATOM     26  C   UNL     1      -0.766  14.993   2.991  1.00  0.00           C
ATOM     27  C   UNL     1      -1.562  14.803   4.126  1.00  0.00           C
ENDROOT
TORSDOF 0
ENDMDL
