ROOT
ATOM      1  C   UNL     1       6.678  -0.009  -0.511  1.00  0.00           C
ATOM      2  N   UNL     1       7.448   1.120  -0.665  1.00  0.00           N
ATOM      3  H   UNL     1       7.128   2.079  -0.617  1.00  0.00           H
ATOM      4  C   UNL     1       8.729   0.741  -0.978  1.00  0.00           C
ATOM      5  C   UNL     1       9.889   1.468  -1.262  1.00  0.00           C
ATOM      6  C   UNL     1       9.883   2.938  -1.270  1.00  0.00           C
ATOM      7  O   UNL     1       8.847   3.549  -1.028  1.00  0.00           O
ATOM      8  C   UNL     1      11.141   3.651  -1.573  1.00  0.00           C
ATOM      9  C   UNL     1      11.160   5.052  -1.580  1.00  0.00           C
ATOM     10  C   UNL     1      12.347   5.732  -1.856  1.00  0.00           C
ATOM     11  C   UNL     1      13.515   5.017  -2.126  1.00  0.00           C
ATOM     12  C   UNL     1      13.497   3.622  -2.123  1.00  0.00           C
ATOM     13  C   UNL     1      12.307   2.936  -1.846  1.00  0.00           C
ATOM     14  C   UNL     1      12.302   1.458  -1.847  1.00  0.00           C
ATOM     15  O   UNL     1      13.328   0.835  -2.096  1.00  0.00           O
ATOM     16  C   UNL     1      11.048   0.740  -1.543  1.00  0.00           C
ATOM     17  C   UNL     1      11.033  -0.663  -1.542  1.00  0.00           C
ATOM     18  C   UNL     1       9.852  -1.368  -1.261  1.00  0.00           C
ATOM     19  C   UNL     1       8.684  -0.645  -0.979  1.00  0.00           C
ATOM     20  N   UNL     1       7.418  -1.089  -0.699  1.00  0.00           N
ATOM     21  C   UNL     1       0.939   0.185   0.144  1.00  0.00           C
ATOM     22  C   UNL     1       2.434   0.113   0.048  1.00  0.00           C
ATOM     23  C   UNL     1       3.038  -0.943  -0.642  1.00  0.00           C
ATOM     24  C   UNL     1       4.427  -0.990  -0.788  1.00  0.00           C
ATOM     25  C   UNL     1       5.237   0.025  -0.263  1.00  0.00           C
ATOM     26  C   UNL     1       4.632   1.061   0.460  1.00  0.00           C
ATOM     27  C   UNL     1       3.242   1.105   0.614  1.00  0.00           C
ENDROOT
TORSDOF 0