REMARK  Name = *****
REMARK  3 active torsions:
REMARK  status: ('A' for Active; 'I' for Inactive)
REMARK    1  A    between atoms: C_1  and  C_2
REMARK    2  A    between atoms: C_5  and  C_8
REMARK    3  A    between atoms: C_14  and  C_17
REMARK                            x       y       z     vdW  Elec       q    Type
REMARK                         _______ _______ _______ _____ _____    ______ ____
ROOT
ATOM      1  C   UNL     1       6.784   0.151  -0.679  0.00  0.00    +0.139 A 
ATOM      2  N   UNL     1       7.532   1.298  -0.842  0.00  0.00    -0.338 N 
ATOM      3  H   UNL     1       7.172   2.239  -0.796  0.00  0.00    +0.167 HD
ATOM      4  C   UNL     1       8.822   0.949  -1.148  0.00  0.00    +0.067 A 
ATOM      5  C   UNL     1       9.969   1.702  -1.431  0.00  0.00    +0.039 A 
ATOM      6  C   UNL     1      11.158   0.999  -1.701  0.00  0.00    +0.019 A 
ATOM      7  C   UNL     1      11.149  -0.407  -1.701  0.00  0.00    +0.013 A 
ATOM      8  C   UNL     1       9.982  -1.137  -1.425  0.00  0.00    +0.030 A 
ATOM      9  C   UNL     1       8.802  -0.438  -1.144  0.00  0.00    +0.089 A 
ATOM     10  N   UNL     1       7.545  -0.913  -0.864  0.00  0.00    -0.228 NA
ENDROOT
BRANCH   6  11
ATOM     11  C   UNL     1      12.389   1.746  -1.986  0.00  0.00    +0.139 A 
ATOM     12  N   UNL     1      13.649   1.265  -1.702  0.00  0.00    -0.338 N 
ATOM     13  H   UNL     1      13.848   0.382  -1.259  0.00  0.00    +0.167 HD
ATOM     14  C   UNL     1      14.580   2.184  -2.104  0.00  0.00    +0.067 A 
ATOM     15  C   UNL     1      15.976   2.185  -2.061  0.00  0.00    +0.028 A 
ATOM     16  C   UNL     1      16.617   3.315  -2.581  0.00  0.00    +0.002 A 
ATOM     17  C   UNL     1      15.887   4.381  -3.113  0.00  0.00    +0.002 A 
ATOM     18  C   UNL     1      14.485   4.353  -3.136  0.00  0.00    +0.030 A 
ATOM     19  C   UNL     1      13.825   3.228  -2.616  0.00  0.00    +0.089 A 
ATOM     20  N   UNL     1      12.479   2.955  -2.514  0.00  0.00    -0.228 NA
ENDBRANCH   6  11
BRANCH   1  25
ATOM     21  C   UNL     1       1.038   0.261  -0.001  0.00  0.00    +0.044 C 
ATOM     22  C   UNL     1       2.534   0.206  -0.101  0.00  0.00    -0.050 A 
ATOM     23  C   UNL     1       3.152  -0.841  -0.794  0.00  0.00    +0.004 A 
ATOM     24  C   UNL     1       4.542  -0.868  -0.946  0.00  0.00    +0.012 A 
ATOM     25  C   UNL     1       5.341   0.157  -0.423  0.00  0.00    +0.017 A 
ATOM     26  C   UNL     1       4.723   1.180   0.307  0.00  0.00    +0.012 A 
ATOM     27  C   UNL     1       3.332   1.205   0.466  0.00  0.00    +0.004 A 
ENDBRANCH   1  25
TORSDOF 2
