REMARK  Name = *****
REMARK  5 active torsions:
REMARK  status: ('A' for Active; 'I' for Inactive)
REMARK    1  A    between atoms: C_1  and  C_2
REMARK    2  A    between atoms: C_5  and  N_8
REMARK    3  A    between atoms: N_11  and  C_12
REMARK    4  A    between atoms: C_15  and  C_18
REMARK    5  A    between atoms: N_20  and  C_21
REMARK                            x       y       z     vdW  Elec       q    Type
REMARK                         _______ _______ _______ _____ _____    ______ ____
ROOT
ATOM      1  C   UNL     1       9.650  -2.415  -0.968  0.00  0.00    +0.035 A 
ATOM      2  C   UNL     1       9.080  -3.678  -0.757  0.00  0.00    +0.024 A 
ATOM      3  C   UNL     1       9.810  -4.847  -1.001  0.00  0.00    +0.015 A 
ATOM      4  C   UNL     1      11.120  -4.757  -1.477  0.00  0.00    +0.037 A 
ATOM      5  C   UNL     1      11.708  -3.489  -1.625  0.00  0.00    +0.015 A 
ATOM      6  C   UNL     1      10.986  -2.323  -1.351  0.00  0.00    +0.024 A 
ENDROOT
BRANCH   1  10
ATOM      7  N   UNL     1       7.041   0.079  -1.362  0.00  0.00    -0.269 N 
ATOM      8  H   UNL     1       7.553   0.799  -0.876  0.00  0.00    +0.156 HD
ATOM      9  C   UNL     1       7.643  -1.162  -1.494  0.00  0.00    +0.308 C 
ATOM     10  N   UNL     1       8.883  -1.227  -0.867  0.00  0.00    -0.269 N 
ATOM     11  H   UNL     1       9.400  -0.361  -0.858  0.00  0.00    +0.156 HD
ATOM     12  O   UNL     1       7.176  -2.106  -2.120  0.00  0.00    -0.252 OA
BRANCH   7  17
ATOM     13  C   UNL     1       1.866   1.611  -3.334  0.00  0.00    +0.044 C 
ATOM     14  C   UNL     1       3.231   1.216  -2.857  0.00  0.00    -0.050 A 
ATOM     15  C   UNL     1       4.103   2.158  -2.298  0.00  0.00    +0.005 A 
ATOM     16  C   UNL     1       5.362   1.770  -1.810  0.00  0.00    +0.023 A 
ATOM     17  C   UNL     1       5.770   0.433  -1.881  0.00  0.00    +0.035 A 
ATOM     18  C   UNL     1       4.894  -0.495  -2.447  0.00  0.00    +0.023 A 
ATOM     19  C   UNL     1       3.641  -0.113  -2.930  0.00  0.00    +0.005 A 
ENDBRANCH   7  17
ENDBRANCH   1  10
BRANCH   4  20
ATOM     20  C   UNL     1      11.949  -5.952  -1.825  0.00  0.00    +0.248 C 
ATOM     21  N   UNL     1      11.263  -7.087  -2.236  0.00  0.00    -0.281 N 
ATOM     22  H   UNL     1      10.257  -7.025  -2.319  0.00  0.00    +0.155 HD
ATOM     23  O   UNL     1      13.169  -5.833  -1.740  0.00  0.00    -0.270 OA
BRANCH  21  24
ATOM     24  C   UNL     1      11.829  -8.319  -2.654  0.00  0.00    +0.034 A 
ATOM     25  C   UNL     1      10.950  -9.334  -3.057  0.00  0.00    +0.023 A 
ATOM     26  C   UNL     1      11.438 -10.573  -3.498  0.00  0.00    +0.002 A 
ATOM     27  C   UNL     1      12.809 -10.810  -3.539  0.00  0.00    +0.000 A 
ATOM     28  C   UNL     1      13.690  -9.811  -3.138  0.00  0.00    +0.002 A 
ATOM     29  C   UNL     1      13.202  -8.576  -2.695  0.00  0.00    +0.023 A 
ENDBRANCH  21  24
ENDBRANCH   4  20
TORSDOF 4
