MODEL 1
REMARK VINA RESULT:    -6.493      0.000      0.000
REMARK INTER + INTRA:          -6.493
REMARK INTER:                  -6.493
REMARK INTRA:                   0.000
REMARK UNBOUND:                 0.000
ROOT
ATOM      1  C   UNL     1       2.036  14.409   4.365  1.00  0.00           C
ATOM      2  C   UNL     1       2.502  13.635   5.442  1.00  0.00           C
ATOM      3  C   UNL     1       1.671  13.295   6.521  1.00  0.00           C
ATOM      4  C   UNL     1       0.355  13.764   6.529  1.00  0.00           C
ATOM      5  N   UNL     1      -0.641  13.563   7.451  1.00  0.00           N
ATOM      6  C   UNL     1      -1.703  14.208   6.999  1.00  0.00           C
ATOM      7  N   UNL     1      -1.390  14.847   5.817  1.00  0.00           N
ATOM      8  H   UNL     1      -2.018  15.413   5.270  1.00  0.00           H
ATOM      9  C   UNL     1      -0.091  14.558   5.483  1.00  0.00           C
ATOM     10  C   UNL     1       0.716  14.905   4.389  1.00  0.00           C
ATOM     11  C   UNL     1       6.246  13.025   1.152  1.00  0.00           C
ATOM     12  C   UNL     1       5.664  12.233   2.153  1.00  0.00           C
ATOM     13  C   UNL     1       4.552  12.649   2.913  1.00  0.00           C
ATOM     14  C   UNL     1       3.988  13.917   2.683  1.00  0.00           C
ATOM     15  C   UNL     1       2.922  14.714   3.229  1.00  0.00           C
ATOM     16  N   UNL     1       2.798  15.870   2.549  1.00  0.00           N
ATOM     17  N   UNL     1       3.783  15.822   1.635  1.00  0.00           N
ATOM     18  H   UNL     1       3.887  16.612   1.010  1.00  0.00           H
ATOM     19  C   UNL     1       4.544  14.687   1.673  1.00  0.00           C
ATOM     20  C   UNL     1       5.646  14.280   0.908  1.00  0.00           C
ATOM     21  N   UNL     1       8.842  11.875  -2.028  1.00  0.00           N
ATOM     22  C   UNL     1       8.462  13.262  -1.654  1.00  0.00           C
ATOM     23  C   UNL     1       8.336  13.517  -0.136  1.00  0.00           C
ATOM     24  N   UNL     1       7.345  12.596   0.431  1.00  0.00           N
ATOM     25  C   UNL     1       7.669  11.179   0.196  1.00  0.00           C
ATOM     26  C   UNL     1       7.953  10.923  -1.315  1.00  0.00           C
ATOM     27  C   UNL     1      10.792  10.373  -2.490  1.00  0.00           C
ATOM     28  C   UNL     1      10.275  11.643  -1.816  1.00  0.00           C
ATOM     29  C   UNL     1      -3.027  14.211   7.642  1.00  0.00           C
ATOM     30  C   UNL     1      -4.133  14.882   7.095  1.00  0.00           C
ATOM     31  C   UNL     1      -5.383  14.811   7.712  1.00  0.00           C
ATOM     32  C   UNL     1      -5.531  14.066   8.874  1.00  0.00           C
ATOM     33  C   UNL     1      -4.451  13.399   9.454  1.00  0.00           C
ATOM     34  C   UNL     1      -3.202  13.483   8.837  1.00  0.00           C
ATOM     35  O   UNL     1      -6.775  13.989   9.439  1.00  0.00           O
ATOM     36  H   UNL     1      -6.662  13.401  10.212  1.00  0.00           H
ATOM     37  O   UNL     1      -4.748  12.700  10.597  1.00  0.00           O
ATOM     38  C   UNL     1      -3.671  12.001  11.212  1.00  0.00           C
ENDROOT
TORSDOF 0
ENDMDL
MODEL 2
REMARK VINA RESULT:    -6.110      9.023     14.689
REMARK INTER + INTRA:          -6.110
REMARK INTER:                  -6.110
REMARK INTRA:                   0.000
REMARK UNBOUND:                 0.000
ROOT
ATOM      1  C   UNL     1       2.759  12.622  -4.600  1.00  0.00           C
ATOM      2  C   UNL     1       1.464  12.554  -5.141  1.00  0.00           C
ATOM      3  C   UNL     1       1.208  11.929  -6.371  1.00  0.00           C
ATOM      4  C   UNL     1       2.280  11.383  -7.083  1.00  0.00           C
ATOM      5  N   UNL     1       2.286  10.721  -8.283  1.00  0.00           N
ATOM      6  C   UNL     1       3.546  10.397  -8.524  1.00  0.00           C
ATOM      7  N   UNL     1       4.349  10.874  -7.507  1.00  0.00           N
ATOM      8  H   UNL     1       5.349  10.769  -7.451  1.00  0.00           H
ATOM      9  C   UNL     1       3.562  11.483  -6.564  1.00  0.00           C
ATOM     10  C   UNL     1       3.844  12.096  -5.333  1.00  0.00           C
ATOM     11  C   UNL     1       0.939  13.924   0.395  1.00  0.00           C
ATOM     12  C   UNL     1       0.280  13.127  -0.552  1.00  0.00           C
ATOM     13  C   UNL     1       0.837  12.804  -1.807  1.00  0.00           C
ATOM     14  C   UNL     1       2.106  13.302  -2.152  1.00  0.00           C
ATOM     15  C   UNL     1       2.987  13.251  -3.288  1.00  0.00           C
ATOM     16  N   UNL     1       4.142  13.888  -3.021  1.00  0.00           N
ATOM     17  N   UNL     1       3.976  14.366  -1.775  1.00  0.00           N
ATOM     18  H   UNL     1       4.732  14.902  -1.368  1.00  0.00           H
ATOM     19  C   UNL     1       2.771  14.065  -1.204  1.00  0.00           C
ATOM     20  C   UNL     1       2.228  14.385   0.048  1.00  0.00           C
ATOM     21  N   UNL     1       0.199  14.315   4.575  1.00  0.00           N
ATOM     22  C   UNL     1       1.148  15.122   3.766  1.00  0.00           C
ATOM     23  C   UNL     1       0.659  15.471   2.343  1.00  0.00           C
ATOM     24  N   UNL     1       0.363  14.234   1.613  1.00  0.00           N
ATOM     25  C   UNL     1      -0.640  13.391   2.284  1.00  0.00           C
ATOM     26  C   UNL     1      -0.248  13.148   3.773  1.00  0.00           C
ATOM     27  C   UNL     1      -1.701  14.467   6.200  1.00  0.00           C
ATOM     28  C   UNL     1      -0.892  15.147   5.097  1.00  0.00           C
ATOM     29  C   UNL     1       4.013   9.615  -9.680  1.00  0.00           C
ATOM     30  C   UNL     1       5.360   9.265  -9.863  1.00  0.00           C
ATOM     31  C   UNL     1       5.747   8.475 -10.947  1.00  0.00           C
ATOM     32  C   UNL     1       4.788   8.030 -11.847  1.00  0.00           C
ATOM     33  C   UNL     1       3.442   8.370 -11.704  1.00  0.00           C
ATOM     34  C   UNL     1       3.064   9.169 -10.623  1.00  0.00           C
ATOM     35  O   UNL     1       5.192   7.231 -12.881  1.00  0.00           O
ATOM     36  H   UNL     1       4.370   7.010 -13.362  1.00  0.00           H
ATOM     37  O   UNL     1       2.609   7.855 -12.665  1.00  0.00           O
ATOM     38  C   UNL     1       1.227   8.177 -12.547  1.00  0.00           C
ENDROOT
TORSDOF 0
ENDMDL
MODEL 3
REMARK VINA RESULT:    -5.808      5.208     12.701
REMARK INTER + INTRA:          -5.808
REMARK INTER:                  -5.808
REMARK INTRA:                   0.000
REMARK UNBOUND:                 0.000
ROOT
ATOM      1  C   UNL     1       3.274  13.814   2.624  1.00  0.00           C
ATOM      2  C   UNL     1       3.525  12.435   2.741  1.00  0.00           C
ATOM      3  C   UNL     1       4.784  11.886   2.456  1.00  0.00           C
ATOM      4  C   UNL     1       5.805  12.737   2.021  1.00  0.00           C
ATOM      5  N   UNL     1       7.105  12.448   1.696  1.00  0.00           N
ATOM      6  C   UNL     1       7.668  13.595   1.354  1.00  0.00           C
ATOM      7  N   UNL     1       6.733  14.609   1.424  1.00  0.00           N
ATOM      8  H   UNL     1       6.900  15.578   1.208  1.00  0.00           H
ATOM      9  C   UNL     1       5.544  14.091   1.873  1.00  0.00           C
ATOM     10  C   UNL     1       4.297  14.666   2.158  1.00  0.00           C
ATOM     11  C   UNL     1      -1.336  13.536   5.561  1.00  0.00           C
ATOM     12  C   UNL     1      -0.202  12.724   5.710  1.00  0.00           C
ATOM     13  C   UNL     1       0.966  12.887   4.937  1.00  0.00           C
ATOM     14  C   UNL     1       1.016  13.895   3.957  1.00  0.00           C
ATOM     15  C   UNL     1       1.952  14.362   2.969  1.00  0.00           C
ATOM     16  N   UNL     1       1.465  15.442   2.329  1.00  0.00           N
ATOM     17  N   UNL     1       0.245  15.621   2.863  1.00  0.00           N
ATOM     18  H   UNL     1      -0.319  16.386   2.513  1.00  0.00           H
ATOM     19  C   UNL     1      -0.093  14.717   3.832  1.00  0.00           C
ATOM     20  C   UNL     1      -1.256  14.568   4.600  1.00  0.00           C
ATOM     21  N   UNL     1      -4.594  14.135   8.245  1.00  0.00           N
ATOM     22  C   UNL     1      -4.487  14.652   6.857  1.00  0.00           C
ATOM     23  C   UNL     1      -3.819  13.687   5.852  1.00  0.00           C
ATOM     24  N   UNL     1      -2.473  13.346   6.326  1.00  0.00           N
ATOM     25  C   UNL     1      -2.467  12.739   7.667  1.00  0.00           C
ATOM     26  C   UNL     1      -3.268  13.620   8.673  1.00  0.00           C
ATOM     27  C   UNL     1      -6.072  12.858   9.812  1.00  0.00           C
ATOM     28  C   UNL     1      -5.690  13.166   8.366  1.00  0.00           C
ATOM     29  C   UNL     1       9.083  13.769   0.990  1.00  0.00           C
ATOM     30  C   UNL     1       9.636  15.020   0.674  1.00  0.00           C
ATOM     31  C   UNL     1      10.997  15.143   0.388  1.00  0.00           C
ATOM     32  C   UNL     1      11.808  14.017   0.422  1.00  0.00           C
ATOM     33  C   UNL     1      11.290  12.755   0.718  1.00  0.00           C
ATOM     34  C   UNL     1       9.926  12.638   0.992  1.00  0.00           C
ATOM     35  O   UNL     1      13.144  14.173   0.170  1.00  0.00           O
ATOM     36  H   UNL     1      13.524  13.279   0.276  1.00  0.00           H
ATOM     37  O   UNL     1      12.210  11.736   0.720  1.00  0.00           O
ATOM     38  C   UNL     1      11.718  10.436   1.024  1.00  0.00           C
ENDROOT
TORSDOF 0
ENDMDL
MODEL 4
REMARK VINA RESULT:    -5.462      4.926     12.863
REMARK INTER + INTRA:          -5.462
REMARK INTER:                  -5.462
REMARK INTRA:                   0.000
REMARK UNBOUND:                 0.000
ROOT
ATOM      1  C   UNL     1       1.663  14.363   4.230  1.00  0.00           C
ATOM      2  C   UNL     1       1.325  15.167   3.128  1.00  0.00           C
ATOM      3  C   UNL     1       2.181  15.307   2.025  1.00  0.00           C
ATOM      4  C   UNL     1       3.412  14.645   2.041  1.00  0.00           C
ATOM      5  N   UNL     1       4.402  14.615   1.094  1.00  0.00           N
ATOM      6  C   UNL     1       5.359  13.841   1.578  1.00  0.00           C
ATOM      7  N   UNL     1       5.007  13.403   2.839  1.00  0.00           N
ATOM      8  H   UNL     1       5.563  12.806   3.430  1.00  0.00           H
ATOM      9  C   UNL     1       3.758  13.881   3.145  1.00  0.00           C
ATOM     10  C   UNL     1       2.918  13.718   4.257  1.00  0.00           C
ATOM     11  C   UNL     1      -3.474  14.251   6.115  1.00  0.00           C
ATOM     12  C   UNL     1      -3.080  14.343   4.772  1.00  0.00           C
ATOM     13  C   UNL     1      -1.730  14.325   4.365  1.00  0.00           C
ATOM     14  C   UNL     1      -0.714  14.222   5.331  1.00  0.00           C
ATOM     15  C   UNL     1       0.725  14.206   5.354  1.00  0.00           C
ATOM     16  N   UNL     1       1.177  14.020   6.609  1.00  0.00           N
ATOM     17  N   UNL     1       0.061  13.968   7.357  1.00  0.00           N
ATOM     18  H   UNL     1       0.167  13.844   8.357  1.00  0.00           H
ATOM     19  C   UNL     1      -1.104  14.100   6.656  1.00  0.00           C
ATOM     20  C   UNL     1      -2.444  14.110   7.070  1.00  0.00           C
ATOM     21  N   UNL     1      -7.280  13.232   7.744  1.00  0.00           N
ATOM     22  C   UNL     1      -6.095  13.712   8.500  1.00  0.00           C
ATOM     23  C   UNL     1      -5.260  14.796   7.784  1.00  0.00           C
ATOM     24  N   UNL     1      -4.806  14.282   6.487  1.00  0.00           N
ATOM     25  C   UNL     1      -5.911  13.857   5.612  1.00  0.00           C
ATOM     26  C   UNL     1      -6.861  12.876   6.364  1.00  0.00           C
ATOM     27  C   UNL     1      -9.722  13.630   7.357  1.00  0.00           C
ATOM     28  C   UNL     1      -8.381  14.201   7.813  1.00  0.00           C
ATOM     29  C   UNL     1       6.593  13.474   0.865  1.00  0.00           C
ATOM     30  C   UNL     1       7.557  12.614   1.414  1.00  0.00           C
ATOM     31  C   UNL     1       8.687  12.251   0.677  1.00  0.00           C
ATOM     32  C   UNL     1       8.851  12.744  -0.611  1.00  0.00           C
ATOM     33  C   UNL     1       7.920  13.613  -1.183  1.00  0.00           C
ATOM     34  C   UNL     1       6.799  13.979  -0.436  1.00  0.00           C
ATOM     35  O   UNL     1       9.951  12.345  -1.321  1.00  0.00           O
ATOM     36  H   UNL     1       9.853  12.774  -2.194  1.00  0.00           H
ATOM     37  O   UNL     1       8.211  14.013  -2.462  1.00  0.00           O
ATOM     38  C   UNL     1       7.280  14.895  -3.080  1.00  0.00           C
ENDROOT
TORSDOF 0
ENDMDL
MODEL 5
REMARK VINA RESULT:    -5.452      6.320     13.626
REMARK INTER + INTRA:          -5.452
REMARK INTER:                  -5.452
REMARK INTRA:                   0.000
REMARK UNBOUND:                 0.000
ROOT
ATOM      1  C   UNL     1       6.953  14.240   1.383  1.00  0.00           C
ATOM      2  C   UNL     1       7.125  12.845   1.416  1.00  0.00           C
ATOM      3  C   UNL     1       8.373  12.249   1.181  1.00  0.00           C
ATOM      4  C   UNL     1       9.464  13.070   0.882  1.00  0.00           C
ATOM      5  N   UNL     1      10.769  12.733   0.628  1.00  0.00           N
ATOM      6  C   UNL     1      11.412  13.868   0.410  1.00  0.00           C
ATOM      7  N   UNL     1      10.526  14.925   0.489  1.00  0.00           N
ATOM      8  H   UNL     1      10.757  15.896   0.356  1.00  0.00           H
ATOM      9  C   UNL     1       9.283  14.443   0.815  1.00  0.00           C
ATOM     10  C   UNL     1       8.049  15.065   1.053  1.00  0.00           C
ATOM     11  C   UNL     1       2.130  14.015   3.962  1.00  0.00           C
ATOM     12  C   UNL     1       3.208  13.133   4.130  1.00  0.00           C
ATOM     13  C   UNL     1       4.437  13.284   3.455  1.00  0.00           C
ATOM     14  C   UNL     1       4.610  14.354   2.557  1.00  0.00           C
ATOM     15  C   UNL     1       5.638  14.836   1.674  1.00  0.00           C
ATOM     16  N   UNL     1       5.254  15.982   1.081  1.00  0.00           N
ATOM     17  N   UNL     1       4.008  16.190   1.540  1.00  0.00           N
ATOM     18  H   UNL     1       3.511  17.007   1.208  1.00  0.00           H
ATOM     19  C   UNL     1       3.555  15.242   2.414  1.00  0.00           C
ATOM     20  C   UNL     1       2.332  15.104   3.087  1.00  0.00           C
ATOM     21  N   UNL     1      -1.282  14.605   6.448  1.00  0.00           N
ATOM     22  C   UNL     1      -1.047  15.210   5.112  1.00  0.00           C
ATOM     23  C   UNL     1      -0.356  14.282   4.089  1.00  0.00           C
ATOM     24  N   UNL     1       0.932  13.835   4.629  1.00  0.00           N
ATOM     25  C   UNL     1       0.809  13.138   5.920  1.00  0.00           C
ATOM     26  C   UNL     1      -0.019  13.990   6.929  1.00  0.00           C
ATOM     27  C   UNL     1      -2.934  13.307   7.811  1.00  0.00           C
ATOM     28  C   UNL     1      -2.431  13.692   6.421  1.00  0.00           C
ATOM     29  C   UNL     1      12.857  13.989   0.160  1.00  0.00           C
ATOM     30  C   UNL     1      13.493  15.226  -0.025  1.00  0.00           C
ATOM     31  C   UNL     1      14.876  15.293  -0.205  1.00  0.00           C
ATOM     32  C   UNL     1      15.625  14.124  -0.196  1.00  0.00           C
ATOM     33  C   UNL     1      15.024  12.875  -0.030  1.00  0.00           C
ATOM     34  C   UNL     1      13.640  12.815   0.139  1.00  0.00           C
ATOM     35  O   UNL     1      16.982  14.224  -0.343  1.00  0.00           O
ATOM     36  H   UNL     1      17.308  13.305  -0.275  1.00  0.00           H
ATOM     37  O   UNL     1      15.890  11.810  -0.038  1.00  0.00           O
ATOM     38  C   UNL     1      15.312  10.521   0.136  1.00  0.00           C
ENDROOT
TORSDOF 0
ENDMDL
