ROOT
ATOM      1  C   UNL     1       3.544   9.722   4.519  1.00  0.00           C
ATOM      2  C   UNL     1       2.394  10.229   3.889  1.00  0.00           C
ATOM      3  C   UNL     1       2.157  11.608   3.782  1.00  0.00           C
ATOM      4  C   UNL     1       3.082  12.494   4.342  1.00  0.00           C
ATOM      5  N   UNL     1       3.081  13.865   4.359  1.00  0.00           N
ATOM      6  C   UNL     1       4.177  14.231   5.002  1.00  0.00           C
ATOM      7  N   UNL     1       4.862  13.110   5.426  1.00  0.00           N
ATOM      8  H   UNL     1       5.725  13.110   5.945  1.00  0.00           H
ATOM      9  C   UNL     1       4.197  11.990   4.994  1.00  0.00           C
ATOM     10  C   UNL     1       4.462  10.617   5.108  1.00  0.00           C
ATOM     11  C   UNL     1       2.909   4.737   2.350  1.00  0.00           C
ATOM     12  C   UNL     1       2.530   5.955   1.767  1.00  0.00           C
ATOM     13  C   UNL     1       2.766   7.205   2.376  1.00  0.00           C
ATOM     14  C   UNL     1       3.399   7.258   3.631  1.00  0.00           C
ATOM     15  C   UNL     1       3.782   8.270   4.579  1.00  0.00           C
ATOM     16  N   UNL     1       4.434   7.721   5.621  1.00  0.00           N
ATOM     17  N   UNL     1       4.421   6.402   5.361  1.00  0.00           N
ATOM     18  H   UNL     1       4.854   5.782   6.034  1.00  0.00           H
ATOM     19  C   UNL     1       3.801   6.056   4.193  1.00  0.00           C
ATOM     20  C   UNL     1       3.577   4.809   3.592  1.00  0.00           C
ATOM     21  N   UNL     1       3.370   0.907   0.535  1.00  0.00           N
ATOM     22  C   UNL     1       3.446   1.212   1.987  1.00  0.00           C
ATOM     23  C   UNL     1       2.446   2.280   2.482  1.00  0.00           C
ATOM     24  N   UNL     1       2.654   3.525   1.735  1.00  0.00           N
ATOM     25  C   UNL     1       2.513   3.358   0.279  1.00  0.00           C
ATOM     26  C   UNL     1       3.400   2.181  -0.228  1.00  0.00           C
ATOM     27  C   UNL     1       2.276  -0.578  -1.159  1.00  0.00           C
ATOM     28  C   UNL     1       2.220   0.046   0.234  1.00  0.00           C
ATOM     29  C   UNL     1       4.617  15.621   5.202  1.00  0.00           C
ATOM     30  C   UNL     1       5.813  15.950   5.859  1.00  0.00           C
ATOM     31  C   UNL     1       6.216  17.282   5.976  1.00  0.00           C
ATOM     32  C   UNL     1       5.426  18.286   5.433  1.00  0.00           C
ATOM     33  C   UNL     1       4.223  17.997   4.786  1.00  0.00           C
ATOM     34  C   UNL     1       3.822  16.664   4.682  1.00  0.00           C
ATOM     35  O   UNL     1       5.862  19.579   5.535  1.00  0.00           O
ATOM     36  H   UNL     1       5.186  20.108   5.067  1.00  0.00           H
ATOM     37  O   UNL     1       3.552  19.089   4.296  1.00  0.00           O
ATOM     38  C   UNL     1       2.324  18.831   3.624  1.00  0.00           C
ENDROOT
TORSDOF 0