MODEL 1
REMARK VINA RESULT:    -5.791      0.000      0.000
REMARK INTER + INTRA:          -5.791
REMARK INTER:                  -5.791
REMARK INTRA:                   0.000
REMARK UNBOUND:                 0.000
ROOT
ATOM      1  C   UNL     1       1.223  13.986  -0.581  1.00  0.00           C
ATOM      2  C   UNL     1       1.321  13.942   0.955  1.00  0.00           C
ATOM      3  C   UNL     1       2.025  15.303   1.433  1.00  0.00           C
ATOM      4  C   UNL     1       2.235  15.534   2.970  1.00  0.00           C
ATOM      5  C   UNL     1       1.192  15.084   3.729  1.00  0.00           C
ATOM      6  C   UNL     1       1.190  13.710   3.819  1.00  0.00           C
ATOM      7  C   UNL     1       2.451  13.111   4.016  1.00  0.00           C
ATOM      8  C   UNL     1       3.595  13.908   4.010  1.00  0.00           C
ATOM      9  C   UNL     1       0.054  13.002   3.104  1.00  0.00           C
ATOM     10  N   UNL     1      -1.236  13.102   3.782  1.00  0.00           N
ATOM     11  N   UNL     1      -2.260  13.846   3.223  1.00  0.00           N
ATOM     12  C   UNL     1      -3.235  14.060   4.203  1.00  0.00           C
ATOM     13  N   UNL     1      -2.683  13.650   5.420  1.00  0.00           N
ATOM     14  O   UNL     1      -4.353  14.485   3.950  1.00  0.00           O
ATOM     15  C   UNL     1      -2.524  13.708   1.815  1.00  0.00           C
ATOM     16  C   UNL     1      -1.229  13.829   1.071  1.00  0.00           C
ATOM     17  C   UNL     1      -1.464  13.011   5.158  1.00  0.00           C
ATOM     18  O   UNL     1      -0.681  12.489   5.940  1.00  0.00           O
ATOM     19  C   UNL     1       3.483  15.175   3.459  1.00  0.00           C
ATOM     20  C   UNL     1      -0.029  13.575   1.641  1.00  0.00           C
ATOM     21  C   UNL     1      -3.257  13.884   6.703  1.00  0.00           C
ATOM     22  C   UNL     1      -2.589  13.522   7.891  1.00  0.00           C
ATOM     23  C   UNL     1      -3.122  13.804   9.155  1.00  0.00           C
ATOM     24  C   UNL     1      -4.349  14.449   9.268  1.00  0.00           C
ATOM     25  C   UNL     1      -5.038  14.809   8.119  1.00  0.00           C
ATOM     26  C   UNL     1      -4.493  14.532   6.858  1.00  0.00           C
ATOM     27  O   UNL     1       0.065  15.831   3.813  1.00  0.00           O
ATOM     28  H   UNL     1      -0.123  15.901   4.765  1.00  0.00           H
ATOM     29  O   UNL     1       2.657  11.763   4.022  1.00  0.00           O
ATOM     30  H   UNL     1       2.291  11.397   3.200  1.00  0.00           H
ENDROOT
TORSDOF 0
ENDMDL
MODEL 2
REMARK VINA RESULT:    -5.590     11.000     13.421
REMARK INTER + INTRA:          -5.590
REMARK INTER:                  -5.590
REMARK INTRA:                   0.000
REMARK UNBOUND:                 0.000
ROOT
ATOM      1  C   UNL     1       4.120  11.979  14.958  1.00  0.00           C
ATOM      2  C   UNL     1       5.282  12.804  14.377  1.00  0.00           C
ATOM      3  C   UNL     1       6.406  12.927  15.516  1.00  0.00           C
ATOM      4  C   UNL     1       7.724  13.709  15.184  1.00  0.00           C
ATOM      5  C   UNL     1       8.166  13.501  13.908  1.00  0.00           C
ATOM      6  C   UNL     1       7.396  14.179  12.991  1.00  0.00           C
ATOM      7  C   UNL     1       7.033  15.492  13.353  1.00  0.00           C
ATOM      8  C   UNL     1       7.381  15.975  14.615  1.00  0.00           C
ATOM      9  C   UNL     1       6.537  13.318  12.081  1.00  0.00           C
ATOM     10  N   UNL     1       7.282  12.632  11.028  1.00  0.00           N
ATOM     11  N   UNL     1       7.422  11.255  11.060  1.00  0.00           N
ATOM     12  C   UNL     1       8.434  10.895  10.165  1.00  0.00           C
ATOM     13  N   UNL     1       9.070  12.077   9.775  1.00  0.00           N
ATOM     14  O   UNL     1       8.629   9.742   9.807  1.00  0.00           O
ATOM     15  C   UNL     1       6.268  10.451  11.365  1.00  0.00           C
ATOM     16  C   UNL     1       5.607  11.008  12.589  1.00  0.00           C
ATOM     17  C   UNL     1       8.329  13.160  10.268  1.00  0.00           C
ATOM     18  O   UNL     1       8.529  14.359  10.131  1.00  0.00           O
ATOM     19  C   UNL     1       7.738  15.040  15.574  1.00  0.00           C
ATOM     20  C   UNL     1       5.754  12.293  12.982  1.00  0.00           C
ATOM     21  C   UNL     1      10.284  12.152   9.032  1.00  0.00           C
ATOM     22  C   UNL     1      10.912  13.384   8.761  1.00  0.00           C
ATOM     23  C   UNL     1      12.137  13.457   8.083  1.00  0.00           C
ATOM     24  C   UNL     1      12.765  12.295   7.648  1.00  0.00           C
ATOM     25  C   UNL     1      12.169  11.066   7.890  1.00  0.00           C
ATOM     26  C   UNL     1      10.949  11.001   8.576  1.00  0.00           C
ATOM     27  O   UNL     1       8.823  12.352  13.615  1.00  0.00           O
ATOM     28  H   UNL     1       9.632  12.632  13.154  1.00  0.00           H
ATOM     29  O   UNL     1       6.189  16.275  12.622  1.00  0.00           O
ATOM     30  H   UNL     1       5.365  15.779  12.479  1.00  0.00           H
ENDROOT
TORSDOF 0
ENDMDL
MODEL 3
REMARK VINA RESULT:    -5.219      2.696      6.872
REMARK INTER + INTRA:          -5.219
REMARK INTER:                  -5.219
REMARK INTRA:                   0.000
REMARK UNBOUND:                 0.000
ROOT
ATOM      1  C   UNL     1      -2.175  13.021   7.669  1.00  0.00           C
ATOM      2  C   UNL     1      -0.799  12.713   7.052  1.00  0.00           C
ATOM      3  C   UNL     1      -0.857  11.222   6.460  1.00  0.00           C
ATOM      4  C   UNL     1       0.419  10.651   5.748  1.00  0.00           C
ATOM      5  C   UNL     1       1.078  11.583   4.997  1.00  0.00           C
ATOM      6  C   UNL     1       1.775  12.468   5.789  1.00  0.00           C
ATOM      7  C   UNL     1       2.464  11.897   6.879  1.00  0.00           C
ATOM      8  C   UNL     1       2.325  10.534   7.138  1.00  0.00           C
ATOM      9  C   UNL     1       1.248  13.891   5.814  1.00  0.00           C
ATOM     10  N   UNL     1       1.541  14.660   4.606  1.00  0.00           N
ATOM     11  N   UNL     1       0.517  15.023   3.748  1.00  0.00           N
ATOM     12  C   UNL     1       1.082  15.433   2.537  1.00  0.00           C
ATOM     13  N   UNL     1       2.435  15.084   2.583  1.00  0.00           N
ATOM     14  O   UNL     1       0.451  16.022   1.671  1.00  0.00           O
ATOM     15  C   UNL     1      -0.699  15.551   4.309  1.00  0.00           C
ATOM     16  C   UNL     1      -1.147  14.645   5.416  1.00  0.00           C
ATOM     17  C   UNL     1       2.735  14.650   3.880  1.00  0.00           C
ATOM     18  O   UNL     1       3.805  14.280   4.344  1.00  0.00           O
ATOM     19  C   UNL     1       1.252   9.883   6.549  1.00  0.00           C
ATOM     20  C   UNL     1      -0.301  13.830   6.085  1.00  0.00           C
ATOM     21  C   UNL     1       3.335  15.133   1.478  1.00  0.00           C
ATOM     22  C   UNL     1       4.664  14.673   1.584  1.00  0.00           C
ATOM     23  C   UNL     1       5.533  14.664   0.485  1.00  0.00           C
ATOM     24  C   UNL     1       5.100  15.127  -0.753  1.00  0.00           C
ATOM     25  C   UNL     1       3.801  15.597  -0.889  1.00  0.00           C
ATOM     26  C   UNL     1       2.935  15.593   0.213  1.00  0.00           C
ATOM     27  O   UNL     1       0.593  11.911   3.775  1.00  0.00           O
ATOM     28  H   UNL     1       1.354  11.840   3.172  1.00  0.00           H
ATOM     29  O   UNL     1       3.117  12.625   7.829  1.00  0.00           O
ATOM     30  H   UNL     1       2.494  13.277   8.193  1.00  0.00           H
ENDROOT
TORSDOF 0
ENDMDL
MODEL 4
REMARK VINA RESULT:    -5.205      3.241      7.971
REMARK INTER + INTRA:          -5.205
REMARK INTER:                  -5.205
REMARK INTRA:                   0.000
REMARK UNBOUND:                 0.000
ROOT
ATOM      1  C   UNL     1       0.462  14.026   6.638  1.00  0.00           C
ATOM      2  C   UNL     1       0.193  13.992   5.122  1.00  0.00           C
ATOM      3  C   UNL     1      -0.601  15.334   4.742  1.00  0.00           C
ATOM      4  C   UNL     1      -0.991  15.571   3.241  1.00  0.00           C
ATOM      5  C   UNL     1      -0.027  15.160   2.364  1.00  0.00           C
ATOM      6  C   UNL     1       0.007  13.789   2.258  1.00  0.00           C
ATOM      7  C   UNL     1      -1.249  13.151   2.198  1.00  0.00           C
ATOM      8  C   UNL     1      -2.409  13.912   2.341  1.00  0.00           C
ATOM      9  C   UNL     1       1.238  13.110   2.833  1.00  0.00           C
ATOM     10  N   UNL     1       2.440  13.256   2.015  1.00  0.00           N
ATOM     11  N   UNL     1       3.497  14.028   2.464  1.00  0.00           N
ATOM     12  C   UNL     1       4.348  14.280   1.384  1.00  0.00           C
ATOM     13  N   UNL     1       3.675  13.864   0.232  1.00  0.00           N
ATOM     14  O   UNL     1       5.474  14.738   1.515  1.00  0.00           O
ATOM     15  C   UNL     1       3.922  13.886   3.832  1.00  0.00           C
ATOM     16  C   UNL     1       2.716  13.960   4.718  1.00  0.00           C
ATOM     17  C   UNL     1       2.513  13.184   0.621  1.00  0.00           C
ATOM     18  O   UNL     1       1.664  12.644  -0.074  1.00  0.00           O
ATOM     19  C   UNL     1      -2.274  15.177   2.891  1.00  0.00           C
ATOM     20  C   UNL     1       1.468  13.673   4.284  1.00  0.00           C
ATOM     21  C   UNL     1       4.093  14.126  -1.105  1.00  0.00           C
ATOM     22  C   UNL     1       3.307  13.754  -2.214  1.00  0.00           C
ATOM     23  C   UNL     1       3.686  14.063  -3.527  1.00  0.00           C
ATOM     24  C   UNL     1       4.872  14.747  -3.769  1.00  0.00           C
ATOM     25  C   UNL     1       5.675  15.119  -2.701  1.00  0.00           C
ATOM     26  C   UNL     1       5.284  14.814  -1.390  1.00  0.00           C
ATOM     27  O   UNL     1       1.061  15.944   2.163  1.00  0.00           O
ATOM     28  H   UNL     1       1.139  16.027   1.197  1.00  0.00           H
ATOM     29  O   UNL     1      -1.414  11.798   2.198  1.00  0.00           O
ATOM     30  H   UNL     1      -0.946  11.436   2.970  1.00  0.00           H
ENDROOT
TORSDOF 0
ENDMDL
MODEL 5
REMARK VINA RESULT:    -5.016      2.410      6.707
REMARK INTER + INTRA:          -5.016
REMARK INTER:                  -5.016
REMARK INTRA:                   0.000
REMARK UNBOUND:                 0.000
ROOT
ATOM      1  C   UNL     1      -4.355  14.208   5.934  1.00  0.00           C
ATOM      2  C   UNL     1      -2.910  13.876   5.522  1.00  0.00           C
ATOM      3  C   UNL     1      -2.708  12.293   5.694  1.00  0.00           C
ATOM      4  C   UNL     1      -1.318  11.672   5.321  1.00  0.00           C
ATOM      5  C   UNL     1      -0.752  12.244   4.217  1.00  0.00           C
ATOM      6  C   UNL     1      -0.248  13.493   4.499  1.00  0.00           C
ATOM      7  C   UNL     1       0.441  13.610   5.723  1.00  0.00           C
ATOM      8  C   UNL     1       0.486  12.518   6.589  1.00  0.00           C
ATOM      9  C   UNL     1      -0.978  14.662   3.860  1.00  0.00           C
ATOM     10  N   UNL     1      -0.719  14.821   2.431  1.00  0.00           N
ATOM     11  N   UNL     1      -1.724  14.577   1.511  1.00  0.00           N
ATOM     12  C   UNL     1      -1.143  14.466   0.244  1.00  0.00           C
ATOM     13  N   UNL     1       0.240  14.401   0.436  1.00  0.00           N
ATOM     14  O   UNL     1      -1.794  14.479  -0.791  1.00  0.00           O
ATOM     15  C   UNL     1      -3.039  15.101   1.771  1.00  0.00           C
ATOM     16  C   UNL     1      -3.424  14.750   3.176  1.00  0.00           C
ATOM     17  C   UNL     1       0.511  14.670   1.784  1.00  0.00           C
ATOM     18  O   UNL     1       1.589  14.734   2.358  1.00  0.00           O
ATOM     19  C   UNL     1      -0.438  11.506   6.381  1.00  0.00           C
ATOM     20  C   UNL     1      -2.516  14.484   4.142  1.00  0.00           C
ATOM     21  C   UNL     1       1.196  14.079  -0.571  1.00  0.00           C
ATOM     22  C   UNL     1       2.567  13.940  -0.273  1.00  0.00           C
ATOM     23  C   UNL     1       3.501  13.565  -1.248  1.00  0.00           C
ATOM     24  C   UNL     1       3.090  13.327  -2.555  1.00  0.00           C
ATOM     25  C   UNL     1       1.749  13.465  -2.884  1.00  0.00           C
ATOM     26  C   UNL     1       0.820  13.832  -1.901  1.00  0.00           C
ATOM     27  O   UNL     1      -1.196  11.887   2.987  1.00  0.00           O
ATOM     28  H   UNL     1      -0.394  11.669   2.481  1.00  0.00           H
ATOM     29  O   UNL     1       0.915  14.789   6.218  1.00  0.00           O
ATOM     30  H   UNL     1       0.180  15.425   6.241  1.00  0.00           H
ENDROOT
TORSDOF 0
ENDMDL
