ROOT
ATOM      1  C   UNL     1       0.906   0.129   0.243  1.00  0.00           C
ATOM      2  C   UNL     1       2.381  -0.117   0.610  1.00  0.00           C
ATOM      3  C   UNL     1       2.539   0.149   2.185  1.00  0.00           C
ATOM      4  C   UNL     1       3.951  -0.050   2.838  1.00  0.00           C
ATOM      5  C   UNL     1       4.635  -1.116   2.325  1.00  0.00           C
ATOM      6  C   UNL     1       5.127  -0.842   1.069  1.00  0.00           C
ATOM      7  C   UNL     1       5.689   0.440   0.901  1.00  0.00           C
ATOM      8  C   UNL     1       5.628   1.356   1.951  1.00  0.00           C
ATOM      9  C   UNL     1       4.484  -1.606  -0.075  1.00  0.00           C
ATOM     10  N   UNL     1       4.890  -3.007  -0.163  1.00  0.00           N
ATOM     11  N   UNL     1       3.981  -4.013   0.114  1.00  0.00           N
ATOM     12  C   UNL     1       4.686  -5.207   0.292  1.00  0.00           C
ATOM     13  N   UNL     1       6.041  -4.871   0.362  1.00  0.00           N
ATOM     14  O   UNL     1       4.145  -6.303   0.322  1.00  0.00           O
ATOM     15  C   UNL     1       2.654  -3.914  -0.435  1.00  0.00           C
ATOM     16  C   UNL     1       2.122  -2.541  -0.156  1.00  0.00           C
ATOM     17  C   UNL     1       6.177  -3.516   0.032  1.00  0.00           C
ATOM     18  O   UNL     1       7.192  -2.838  -0.048  1.00  0.00           O
ATOM     19  C   UNL     1       4.715   1.101   2.962  1.00  0.00           C
ATOM     20  C   UNL     1       2.923  -1.476   0.073  1.00  0.00           C
ATOM     21  C   UNL     1       7.090  -5.758   0.742  1.00  0.00           C
ATOM     22  C   UNL     1       8.421  -5.315   0.881  1.00  0.00           C
ATOM     23  C   UNL     1       9.444  -6.170   1.312  1.00  0.00           C
ATOM     24  C   UNL     1       9.165  -7.500   1.608  1.00  0.00           C
ATOM     25  C   UNL     1       7.867  -7.971   1.472  1.00  0.00           C
ATOM     26  C   UNL     1       6.848  -7.107   1.049  1.00  0.00           C
ATOM     27  O   UNL     1       4.314  -2.367   2.736  1.00  0.00           O
ATOM     28  H   UNL     1       5.160  -2.777   2.986  1.00  0.00           H
ATOM     29  O   UNL     1       6.128   0.925  -0.295  1.00  0.00           O
ATOM     30  H   UNL     1       5.404   0.843  -0.939  1.00  0.00           H
ENDROOT
TORSDOF 0