MODEL 1
REMARK VINA RESULT:    -5.872      0.000      0.000
REMARK INTER + INTRA:          -5.872
REMARK INTER:                  -5.872
REMARK INTRA:                   0.000
REMARK UNBOUND:                 0.000
ROOT
ATOM      1  C   UNL     1       2.493  14.404   2.731  1.00  0.00           C
ATOM      2  C   UNL     1       1.295  15.130   2.749  1.00  0.00           C
ATOM      3  C   UNL     1       0.472  15.132   3.882  1.00  0.00           C
ATOM      4  C   UNL     1       0.840  14.388   5.005  1.00  0.00           C
ATOM      5  C   UNL     1       2.073  13.715   5.005  1.00  0.00           C
ATOM      6  C   UNL     1       2.908  13.739   3.883  1.00  0.00           C
ATOM      7  N   UNL     1       3.518  13.777  -0.695  1.00  0.00           N
ATOM      8  H   UNL     1       4.502  13.882  -0.498  1.00  0.00           H
ATOM      9  C   UNL     1       2.631  13.933   0.358  1.00  0.00           C
ATOM     10  N   UNL     1       3.264  14.271   1.549  1.00  0.00           N
ATOM     11  H   UNL     1       4.191  13.888   1.660  1.00  0.00           H
ATOM     12  O   UNL     1       1.420  13.762   0.286  1.00  0.00           O
ATOM     13  C   UNL     1       2.193  12.549  -6.150  1.00  0.00           C
ATOM     14  C   UNL     1       2.533  12.830  -4.717  1.00  0.00           C
ATOM     15  C   UNL     1       3.864  12.855  -4.281  1.00  0.00           C
ATOM     16  C   UNL     1       4.176  13.166  -2.947  1.00  0.00           C
ATOM     17  C   UNL     1       3.160  13.451  -2.028  1.00  0.00           C
ATOM     18  C   UNL     1       1.838  13.416  -2.473  1.00  0.00           C
ATOM     19  C   UNL     1       1.524  13.110  -3.799  1.00  0.00           C
ATOM     20  C   UNL     1      -0.009  14.282   6.232  1.00  0.00           C
ATOM     21  N   UNL     1      -1.380  14.418   6.053  1.00  0.00           N
ATOM     22  H   UNL     1      -1.723  14.533   5.109  1.00  0.00           H
ATOM     23  O   UNL     1       0.566  14.065   7.295  1.00  0.00           O
ATOM     24  C   UNL     1      -2.382  14.315   7.052  1.00  0.00           C
ATOM     25  C   UNL     1      -3.717  14.460   6.649  1.00  0.00           C
ATOM     26  C   UNL     1      -4.763  14.354   7.579  1.00  0.00           C
ATOM     27  C   UNL     1      -4.484  14.105   8.920  1.00  0.00           C
ATOM     28  C   UNL     1      -3.163  13.964   9.330  1.00  0.00           C
ATOM     29  C   UNL     1      -2.120  14.072   8.403  1.00  0.00           C
ENDROOT
TORSDOF 0
ENDMDL
MODEL 2
REMARK VINA RESULT:    -5.505     10.770     11.429
REMARK INTER + INTRA:          -5.505
REMARK INTER:                  -5.505
REMARK INTRA:                   0.000
REMARK UNBOUND:                 0.000
ROOT
ATOM      1  C   UNL     1       6.074  14.134  11.516  1.00  0.00           C
ATOM      2  C   UNL     1       5.389  13.245  10.677  1.00  0.00           C
ATOM      3  C   UNL     1       4.326  12.473  11.160  1.00  0.00           C
ATOM      4  C   UNL     1       3.951  12.577  12.502  1.00  0.00           C
ATOM      5  C   UNL     1       4.599  13.516  13.322  1.00  0.00           C
ATOM      6  C   UNL     1       5.640  14.308  12.829  1.00  0.00           C
ATOM      7  N   UNL     1       9.346  14.882  10.133  1.00  0.00           N
ATOM      8  H   UNL     1       9.335  15.845  10.431  1.00  0.00           H
ATOM      9  C   UNL     1       8.243  14.100  10.436  1.00  0.00           C
ATOM     10  N   UNL     1       7.241  14.814  11.085  1.00  0.00           N
ATOM     11  H   UNL     1       7.568  15.561  11.679  1.00  0.00           H
ATOM     12  O   UNL     1       8.148  12.901  10.204  1.00  0.00           O
ATOM     13  C   UNL     1      14.076  13.207   7.332  1.00  0.00           C
ATOM     14  C   UNL     1      12.856  13.627   8.096  1.00  0.00           C
ATOM     15  C   UNL     1      12.775  14.891   8.693  1.00  0.00           C
ATOM     16  C   UNL     1      11.610  15.293   9.367  1.00  0.00           C
ATOM     17  C   UNL     1      10.510  14.432   9.459  1.00  0.00           C
ATOM     18  C   UNL     1      10.607  13.172   8.866  1.00  0.00           C
ATOM     19  C   UNL     1      11.762  12.771   8.194  1.00  0.00           C
ATOM     20  C   UNL     1       2.872  11.744  13.117  1.00  0.00           C
ATOM     21  N   UNL     1       2.648  10.497  12.551  1.00  0.00           N
ATOM     22  H   UNL     1       3.253  10.208  11.793  1.00  0.00           H
ATOM     23  O   UNL     1       2.280  12.218  14.085  1.00  0.00           O
ATOM     24  C   UNL     1       1.715   9.520  12.983  1.00  0.00           C
ATOM     25  C   UNL     1       1.670   8.308  12.280  1.00  0.00           C
ATOM     26  C   UNL     1       0.784   7.290  12.661  1.00  0.00           C
ATOM     27  C   UNL     1      -0.068   7.474  13.746  1.00  0.00           C
ATOM     28  C   UNL     1      -0.035   8.674  14.448  1.00  0.00           C
ATOM     29  C   UNL     1       0.848   9.691  14.066  1.00  0.00           C
ENDROOT
TORSDOF 0
ENDMDL
MODEL 3
REMARK VINA RESULT:    -5.239      1.927     10.447
REMARK INTER + INTRA:          -5.239
REMARK INTER:                  -5.239
REMARK INTRA:                   0.000
REMARK UNBOUND:                 0.000
ROOT
ATOM      1  C   UNL     1      -0.322  14.185   5.165  1.00  0.00           C
ATOM      2  C   UNL     1      -0.604  13.201   4.207  1.00  0.00           C
ATOM      3  C   UNL     1       0.134  13.119   3.021  1.00  0.00           C
ATOM      4  C   UNL     1       1.157  14.039   2.778  1.00  0.00           C
ATOM      5  C   UNL     1       1.478  14.982   3.770  1.00  0.00           C
ATOM      6  C   UNL     1       0.758  15.042   4.968  1.00  0.00           C
ATOM      7  N   UNL     1      -3.200  14.686   7.321  1.00  0.00           N
ATOM      8  H   UNL     1      -2.646  14.836   8.150  1.00  0.00           H
ATOM      9  C   UNL     1      -2.530  14.431   6.135  1.00  0.00           C
ATOM     10  N   UNL     1      -1.150  14.376   6.300  1.00  0.00           N
ATOM     11  H   UNL     1      -0.784  14.976   7.023  1.00  0.00           H
ATOM     12  O   UNL     1      -3.064  14.302   5.040  1.00  0.00           O
ATOM     13  C   UNL     1      -8.892  15.004   8.045  1.00  0.00           C
ATOM     14  C   UNL     1      -7.407  14.958   7.841  1.00  0.00           C
ATOM     15  C   UNL     1      -6.524  15.294   8.874  1.00  0.00           C
ATOM     16  C   UNL     1      -5.135  15.203   8.689  1.00  0.00           C
ATOM     17  C   UNL     1      -4.608  14.781   7.462  1.00  0.00           C
ATOM     18  C   UNL     1      -5.499  14.456   6.438  1.00  0.00           C
ATOM     19  C   UNL     1      -6.881  14.543   6.620  1.00  0.00           C
ATOM     20  C   UNL     1       1.952  14.065   1.512  1.00  0.00           C
ATOM     21  N   UNL     1       1.320  13.591   0.370  1.00  0.00           N
ATOM     22  H   UNL     1       0.354  13.303   0.452  1.00  0.00           H
ATOM     23  O   UNL     1       3.092  14.519   1.574  1.00  0.00           O
ATOM     24  C   UNL     1       1.852  13.554  -0.944  1.00  0.00           C
ATOM     25  C   UNL     1       1.029  13.058  -1.965  1.00  0.00           C
ATOM     26  C   UNL     1       1.482  13.006  -3.291  1.00  0.00           C
ATOM     27  C   UNL     1       2.762  13.449  -3.611  1.00  0.00           C
ATOM     28  C   UNL     1       3.588  13.940  -2.605  1.00  0.00           C
ATOM     29  C   UNL     1       3.137  13.988  -1.281  1.00  0.00           C
ENDROOT
TORSDOF 0
ENDMDL
MODEL 4
REMARK VINA RESULT:    -5.115      3.036      5.400
REMARK INTER + INTRA:          -5.115
REMARK INTER:                  -5.115
REMARK INTRA:                   0.000
REMARK UNBOUND:                 0.000
ROOT
ATOM      1  C   UNL     1       4.615  14.297  -2.492  1.00  0.00           C
ATOM      2  C   UNL     1       3.347  14.887  -2.395  1.00  0.00           C
ATOM      3  C   UNL     1       2.766  15.143  -1.147  1.00  0.00           C
ATOM      4  C   UNL     1       3.450  14.793   0.019  1.00  0.00           C
ATOM      5  C   UNL     1       4.748  14.262  -0.083  1.00  0.00           C
ATOM      6  C   UNL     1       5.338  14.035  -1.331  1.00  0.00           C
ATOM      7  N   UNL     1       5.043  12.800  -5.772  1.00  0.00           N
ATOM      8  H   UNL     1       6.019  13.046  -5.838  1.00  0.00           H
ATOM      9  C   UNL     1       4.362  13.174  -4.625  1.00  0.00           C
ATOM     10  N   UNL     1       5.155  13.898  -3.741  1.00  0.00           N
ATOM     11  H   UNL     1       6.132  13.649  -3.745  1.00  0.00           H
ATOM     12  O   UNL     1       3.199  12.882  -4.372  1.00  0.00           O
ATOM     13  C   UNL     1       2.893   9.933 -10.263  1.00  0.00           C
ATOM     14  C   UNL     1       3.457  10.646  -9.071  1.00  0.00           C
ATOM     15  C   UNL     1       4.827  10.915  -8.970  1.00  0.00           C
ATOM     16  C   UNL     1       5.340  11.626  -7.872  1.00  0.00           C
ATOM     17  C   UNL     1       4.489  12.072  -6.854  1.00  0.00           C
ATOM     18  C   UNL     1       3.126  11.791  -6.964  1.00  0.00           C
ATOM     19  C   UNL     1       2.613  11.087  -8.055  1.00  0.00           C
ATOM     20  C   UNL     1       2.879  14.971   1.389  1.00  0.00           C
ATOM     21  N   UNL     1       1.495  14.925   1.497  1.00  0.00           N
ATOM     22  H   UNL     1       0.964  14.731   0.659  1.00  0.00           H
ATOM     23  O   UNL     1       3.673  15.123   2.314  1.00  0.00           O
ATOM     24  C   UNL     1       0.730  15.026   2.688  1.00  0.00           C
ATOM     25  C   UNL     1      -0.664  14.927   2.575  1.00  0.00           C
ATOM     26  C   UNL     1      -1.483  15.002   3.711  1.00  0.00           C
ATOM     27  C   UNL     1      -0.917  15.178   4.970  1.00  0.00           C
ATOM     28  C   UNL     1       0.464  15.281   5.094  1.00  0.00           C
ATOM     29  C   UNL     1       1.281  15.209   3.959  1.00  0.00           C
ENDROOT
TORSDOF 0
ENDMDL
MODEL 5
REMARK VINA RESULT:    -4.950      2.812      5.301
REMARK INTER + INTRA:          -4.950
REMARK INTER:                  -4.950
REMARK INTRA:                   0.000
REMARK UNBOUND:                 0.000
ROOT
ATOM      1  C   UNL     1       2.680  13.576  -2.745  1.00  0.00           C
ATOM      2  C   UNL     1       1.442  14.107  -2.357  1.00  0.00           C
ATOM      3  C   UNL     1       1.176  14.406  -1.016  1.00  0.00           C
ATOM      4  C   UNL     1       2.150  14.158  -0.046  1.00  0.00           C
ATOM      5  C   UNL     1       3.411  13.687  -0.448  1.00  0.00           C
ATOM      6  C   UNL     1       3.685  13.418  -1.793  1.00  0.00           C
ATOM      7  N   UNL     1       2.371  11.915  -5.958  1.00  0.00           N
ATOM      8  H   UNL     1       3.282  12.204  -6.279  1.00  0.00           H
ATOM      9  C   UNL     1       1.974  12.320  -4.694  1.00  0.00           C
ATOM     10  N   UNL     1       2.916  13.133  -4.070  1.00  0.00           N
ATOM     11  H   UNL     1       3.875  12.932  -4.310  1.00  0.00           H
ATOM     12  O   UNL     1       0.932  11.986  -4.144  1.00  0.00           O
ATOM     13  C   UNL     1      -0.648   8.688  -9.632  1.00  0.00           C
ATOM     14  C   UNL     1       0.150   9.496  -8.653  1.00  0.00           C
ATOM     15  C   UNL     1       1.482   9.838  -8.913  1.00  0.00           C
ATOM     16  C   UNL     1       2.207  10.636  -8.012  1.00  0.00           C
ATOM     17  C   UNL     1       1.611  11.098  -6.833  1.00  0.00           C
ATOM     18  C   UNL     1       0.284  10.744  -6.582  1.00  0.00           C
ATOM     19  C   UNL     1      -0.440   9.954  -7.477  1.00  0.00           C
ATOM     20  C   UNL     1       1.928  14.387   1.415  1.00  0.00           C
ATOM     21  N   UNL     1       0.620  14.279   1.870  1.00  0.00           N
ATOM     22  H   UNL     1      -0.090  14.010   1.203  1.00  0.00           H
ATOM     23  O   UNL     1       2.917  14.632   2.102  1.00  0.00           O
ATOM     24  C   UNL     1       0.172  14.411   3.210  1.00  0.00           C
ATOM     25  C   UNL     1      -1.197  14.237   3.457  1.00  0.00           C
ATOM     26  C   UNL     1      -1.711  14.336   4.758  1.00  0.00           C
ATOM     27  C   UNL     1      -0.861  14.613   5.826  1.00  0.00           C
ATOM     28  C   UNL     1       0.499  14.791   5.592  1.00  0.00           C
ATOM     29  C   UNL     1       1.010  14.694   4.292  1.00  0.00           C
ENDROOT
TORSDOF 0
ENDMDL
