ROOT
ATOM      1  C   UNL     1       9.650  -2.415  -0.968  1.00  0.00           C
ATOM      2  C   UNL     1       9.080  -3.678  -0.757  1.00  0.00           C
ATOM      3  C   UNL     1       9.810  -4.847  -1.001  1.00  0.00           C
ATOM      4  C   UNL     1      11.120  -4.757  -1.477  1.00  0.00           C
ATOM      5  C   UNL     1      11.708  -3.489  -1.625  1.00  0.00           C
ATOM      6  C   UNL     1      10.986  -2.323  -1.351  1.00  0.00           C
ATOM      7  N   UNL     1       7.041   0.079  -1.362  1.00  0.00           N
ATOM      8  H   UNL     1       7.553   0.799  -0.876  1.00  0.00           H
ATOM      9  C   UNL     1       7.643  -1.162  -1.494  1.00  0.00           C
ATOM     10  N   UNL     1       8.883  -1.227  -0.867  1.00  0.00           N
ATOM     11  H   UNL     1       9.400  -0.361  -0.858  1.00  0.00           H
ATOM     12  O   UNL     1       7.176  -2.106  -2.120  1.00  0.00           O
ATOM     13  C   UNL     1       1.866   1.611  -3.334  1.00  0.00           C
ATOM     14  C   UNL     1       3.231   1.216  -2.857  1.00  0.00           C
ATOM     15  C   UNL     1       4.103   2.158  -2.298  1.00  0.00           C
ATOM     16  C   UNL     1       5.362   1.770  -1.810  1.00  0.00           C
ATOM     17  C   UNL     1       5.770   0.433  -1.881  1.00  0.00           C
ATOM     18  C   UNL     1       4.894  -0.495  -2.447  1.00  0.00           C
ATOM     19  C   UNL     1       3.641  -0.113  -2.930  1.00  0.00           C
ATOM     20  C   UNL     1      11.949  -5.952  -1.825  1.00  0.00           C
ATOM     21  N   UNL     1      11.263  -7.087  -2.236  1.00  0.00           N
ATOM     22  H   UNL     1      10.257  -7.025  -2.319  1.00  0.00           H
ATOM     23  O   UNL     1      13.169  -5.833  -1.740  1.00  0.00           O
ATOM     24  C   UNL     1      11.829  -8.319  -2.654  1.00  0.00           C
ATOM     25  C   UNL     1      10.950  -9.334  -3.057  1.00  0.00           C
ATOM     26  C   UNL     1      11.438 -10.573  -3.498  1.00  0.00           C
ATOM     27  C   UNL     1      12.809 -10.810  -3.539  1.00  0.00           C
ATOM     28  C   UNL     1      13.690  -9.811  -3.138  1.00  0.00           C
ATOM     29  C   UNL     1      13.202  -8.576  -2.695  1.00  0.00           C
ENDROOT
TORSDOF 0