MODEL 1
REMARK VINA RESULT:    -4.618      0.000      0.000
REMARK INTER + INTRA:          -4.618
REMARK INTER:                  -4.618
REMARK INTRA:                   0.000
REMARK UNBOUND:                 0.000
ROOT
ATOM      1  C   UNK A   0      -1.079  14.455   5.364  1.00  0.00           C
ATOM      2  N   GLU A   1       0.160  13.907   5.592  1.00  0.00           N
ATOM      3  H   GLU A   1       0.318  13.332   6.413  1.00  0.00           H
ATOM      4  O   UNK A   0      -1.370  15.015   4.313  1.00  0.00           O
ATOM      5  C   UNK A   0      -5.133  13.408   9.359  1.00  0.00           C
ATOM      6  C   UNK A   0      -4.083  13.788   8.357  1.00  0.00           C
ATOM      7  C   UNK A   0      -2.732  13.776   8.722  1.00  0.00           C
ATOM      8  C   UNK A   0      -1.738  14.034   7.775  1.00  0.00           C
ATOM      9  C   UNK A   0      -2.088  14.294   6.444  1.00  0.00           C
ATOM     10  C   UNK A   0      -3.442  14.369   6.093  1.00  0.00           C
ATOM     11  C   UNK A   0      -4.434  14.113   7.042  1.00  0.00           C
ATOM     12  CA  GLU A   1       1.203  13.885   4.568  1.00  0.00           C
ATOM     13  C   GLU A   1       2.314  12.965   5.089  1.00  0.00           C
ATOM     14  O   GLU A   1       2.763  13.032   6.227  1.00  0.00           O
ATOM     15  OXT GLU A   1       2.747  12.048   4.198  1.00  0.00           O
ATOM     16  HXT GLU A   1       2.349  12.115   3.300  1.00  0.00           H
ATOM     17  CB  GLU A   1       1.736  15.303   4.301  1.00  0.00           C
ATOM     18  CG  GLU A   1       2.852  15.380   3.266  1.00  0.00           C
ATOM     19  CD  GLU A   1       2.393  14.803   1.960  1.00  0.00           C
ATOM     20  OE1 GLU A   1       2.396  13.599   1.739  1.00  0.00           O
ATOM     21  OE2 GLU A   1       1.884  15.711   1.103  1.00  0.00           O
ATOM     22  HE2 GLU A   1       1.854  16.628   1.444  1.00  0.00           H
ENDROOT
TORSDOF 0
ENDMDL
MODEL 2
REMARK VINA RESULT:    -4.355      3.092      7.364
REMARK INTER + INTRA:          -4.355
REMARK INTER:                  -4.355
REMARK INTRA:                   0.000
REMARK UNBOUND:                 0.000
ROOT
ATOM      1  C   UNK A   0      -1.393  14.415   6.011  1.00  0.00           C
ATOM      2  N   GLU A   1      -2.695  14.070   5.740  1.00  0.00           N
ATOM      3  H   GLU A   1      -3.020  14.026   4.780  1.00  0.00           H
ATOM      4  O   UNK A   0      -0.905  14.323   7.133  1.00  0.00           O
ATOM      5  C   UNK A   0       1.935  15.699   1.454  1.00  0.00           C
ATOM      6  C   UNK A   0       1.078  15.476   2.665  1.00  0.00           C
ATOM      7  C   UNK A   0      -0.308  15.656   2.583  1.00  0.00           C
ATOM      8  C   UNK A   0      -1.128  15.360   3.674  1.00  0.00           C
ATOM      9  C   UNK A   0      -0.568  14.865   4.859  1.00  0.00           C
ATOM     10  C   UNK A   0       0.824  14.745   4.962  1.00  0.00           C
ATOM     11  C   UNK A   0       1.642  15.045   3.871  1.00  0.00           C
ATOM     12  CA  GLU A   1      -3.577  13.495   6.755  1.00  0.00           C
ATOM     13  C   GLU A   1      -4.827  12.996   6.021  1.00  0.00           C
ATOM     14  O   GLU A   1      -5.428  13.663   5.187  1.00  0.00           O
ATOM     15  OXT GLU A   1      -5.205  11.742   6.346  1.00  0.00           O
ATOM     16  HXT GLU A   1      -4.677  11.317   7.061  1.00  0.00           H
ATOM     17  CB  GLU A   1      -3.940  14.545   7.819  1.00  0.00           C
ATOM     18  CG  GLU A   1      -4.884  14.048   8.907  1.00  0.00           C
ATOM     19  CD  GLU A   1      -4.293  12.862   9.608  1.00  0.00           C
ATOM     20  OE1 GLU A   1      -4.370  11.728   9.153  1.00  0.00           O
ATOM     21  OE2 GLU A   1      -3.588  13.168  10.716  1.00  0.00           O
ATOM     22  HE2 GLU A   1      -3.529  14.125  10.915  1.00  0.00           H
ENDROOT
TORSDOF 0
ENDMDL
MODEL 3
REMARK VINA RESULT:    -4.315      1.790      2.446
REMARK INTER + INTRA:          -4.315
REMARK INTER:                  -4.315
REMARK INTRA:                   0.000
REMARK UNBOUND:                 0.000
ROOT
ATOM      1  C   UNK A   0       0.600  14.840   3.830  1.00  0.00           C
ATOM      2  N   GLU A   1       1.861  14.295   3.852  1.00  0.00           N
ATOM      3  H   GLU A   1       2.140  13.690   4.618  1.00  0.00           H
ATOM      4  O   UNK A   0       0.156  15.437   2.856  1.00  0.00           O
ATOM      5  C   UNK A   0      -2.820  13.604   8.332  1.00  0.00           C
ATOM      6  C   UNK A   0      -1.930  14.032   7.202  1.00  0.00           C
ATOM      7  C   UNK A   0      -0.540  14.018   7.365  1.00  0.00           C
ATOM      8  C   UNK A   0       0.303  14.321   6.293  1.00  0.00           C
ATOM      9  C   UNK A   0      -0.239  14.629   5.040  1.00  0.00           C
ATOM     10  C   UNK A   0      -1.630  14.704   4.893  1.00  0.00           C
ATOM     11  C   UNK A   0      -2.471  14.404   5.966  1.00  0.00           C
ATOM     12  CA  GLU A   1       2.743  14.321   2.687  1.00  0.00           C
ATOM     13  C   GLU A   1       3.922  13.393   3.004  1.00  0.00           C
ATOM     14  O   GLU A   1       4.532  13.420   4.066  1.00  0.00           O
ATOM     15  OXT GLU A   1       4.222  12.514   2.024  1.00  0.00           O
ATOM     16  HXT GLU A   1       3.697  12.611   1.197  1.00  0.00           H
ATOM     17  CB  GLU A   1       3.226  15.753   2.401  1.00  0.00           C
ATOM     18  CG  GLU A   1       4.178  15.880   1.217  1.00  0.00           C
ATOM     19  CD  GLU A   1       3.535  15.349  -0.029  1.00  0.00           C
ATOM     20  OE1 GLU A   1       3.510  14.155  -0.295  1.00  0.00           O
ATOM     21  OE2 GLU A   1       2.902  16.284  -0.766  1.00  0.00           O
ATOM     22  HE2 GLU A   1       2.919  17.187  -0.388  1.00  0.00           H
ENDROOT
TORSDOF 0
ENDMDL
MODEL 4
REMARK VINA RESULT:    -4.298      1.688      3.199
REMARK INTER + INTRA:          -4.298
REMARK INTER:                  -4.298
REMARK INTRA:                   0.000
REMARK UNBOUND:                 0.000
ROOT
ATOM      1  C   UNK A   0      -1.568  13.627   6.642  1.00  0.00           C
ATOM      2  N   GLU A   1      -1.256  14.090   5.386  1.00  0.00           N
ATOM      3  H   GLU A   1      -1.878  14.739   4.915  1.00  0.00           H
ATOM      4  O   UNK A   0      -0.779  12.978   7.320  1.00  0.00           O
ATOM      5  C   UNK A   0      -6.569  15.465   8.900  1.00  0.00           C
ATOM      6  C   UNK A   0      -5.318  14.885   8.307  1.00  0.00           C
ATOM      7  C   UNK A   0      -5.168  14.824   6.917  1.00  0.00           C
ATOM      8  C   UNK A   0      -3.972  14.376   6.352  1.00  0.00           C
ATOM      9  C   UNK A   0      -2.905  13.995   7.176  1.00  0.00           C
ATOM     10  C   UNK A   0      -3.078  13.997   8.566  1.00  0.00           C
ATOM     11  C   UNK A   0      -4.276  14.443   9.129  1.00  0.00           C
ATOM     12  CA  GLU A   1       0.067  13.906   4.793  1.00  0.00           C
ATOM     13  C   GLU A   1       0.112  14.781   3.534  1.00  0.00           C
ATOM     14  O   GLU A   1      -0.786  14.806   2.701  1.00  0.00           O
ATOM     15  OXT GLU A   1       1.215  15.551   3.425  1.00  0.00           O
ATOM     16  HXT GLU A   1       1.892  15.416   4.127  1.00  0.00           H
ATOM     17  CB  GLU A   1       0.310  12.427   4.449  1.00  0.00           C
ATOM     18  CG  GLU A   1       1.656  12.137   3.795  1.00  0.00           C
ATOM     19  CD  GLU A   1       2.775  12.598   4.680  1.00  0.00           C
ATOM     20  OE1 GLU A   1       3.145  13.764   4.713  1.00  0.00           O
ATOM     21  OE2 GLU A   1       3.258  11.645   5.503  1.00  0.00           O
ATOM     22  HE2 GLU A   1       2.806  10.779   5.439  1.00  0.00           H
ENDROOT
TORSDOF 0
ENDMDL
MODEL 5
REMARK VINA RESULT:    -4.174      3.564      4.615
REMARK INTER + INTRA:          -4.174
REMARK INTER:                  -4.174
REMARK INTRA:                   0.000
REMARK UNBOUND:                 0.000
ROOT
ATOM      1  C   UNK A   0      -0.215  14.827   1.795  1.00  0.00           C
ATOM      2  N   GLU A   1       0.137  14.666   3.113  1.00  0.00           N
ATOM      3  H   GLU A   1      -0.581  14.611   3.828  1.00  0.00           H
ATOM      4  O   UNK A   0       0.595  14.733   0.879  1.00  0.00           O
ATOM      5  C   UNK A   0      -5.874  15.300   0.679  1.00  0.00           C
ATOM      6  C   UNK A   0      -4.396  15.287   0.938  1.00  0.00           C
ATOM      7  C   UNK A   0      -3.903  15.669   2.192  1.00  0.00           C
ATOM      8  C   UNK A   0      -2.540  15.570   2.478  1.00  0.00           C
ATOM      9  C   UNK A   0      -1.655  15.073   1.514  1.00  0.00           C
ATOM     10  C   UNK A   0      -2.138  14.750   0.240  1.00  0.00           C
ATOM     11  C   UNK A   0      -3.501  14.853  -0.045  1.00  0.00           C
ATOM     12  CA  GLU A   1       1.492  14.297   3.519  1.00  0.00           C
ATOM     13  C   GLU A   1       1.426  13.947   5.011  1.00  0.00           C
ATOM     14  O   GLU A   1       0.852  14.643   5.840  1.00  0.00           O
ATOM     15  OXT GLU A   1       2.033  12.788   5.342  1.00  0.00           O
ATOM     16  HXT GLU A   1       2.502  12.334   4.605  1.00  0.00           H
ATOM     17  CB  GLU A   1       2.472  15.456   3.264  1.00  0.00           C
ATOM     18  CG  GLU A   1       3.910  15.177   3.684  1.00  0.00           C
ATOM     19  CD  GLU A   1       4.434  13.962   2.979  1.00  0.00           C
ATOM     20  OE1 GLU A   1       4.197  12.827   3.370  1.00  0.00           O
ATOM     21  OE2 GLU A   1       5.090  14.228   1.832  1.00  0.00           O
ATOM     22  HE2 GLU A   1       5.125  15.176   1.588  1.00  0.00           H
ENDROOT
TORSDOF 0
ENDMDL
