ROOT
ATOM      1  C   UNK A   0       6.731   0.009  -0.965  1.00  0.00           C
ATOM      2  N   GLU A   1       7.557  -1.031  -0.613  1.00  0.00           N
ATOM      3  H   GLU A   1       7.163  -1.890  -0.243  1.00  0.00           H
ATOM      4  O   UNK A   0       7.135   0.998  -1.567  1.00  0.00           O
ATOM      5  C   UNK A   0       1.068  -0.782  -0.074  1.00  0.00           C
ATOM      6  C   UNK A   0       2.534  -0.499  -0.222  1.00  0.00           C
ATOM      7  C   UNK A   0       3.462  -1.193   0.564  1.00  0.00           C
ATOM      8  C   UNK A   0       4.833  -1.010   0.370  1.00  0.00           C
ATOM      9  C   UNK A   0       5.291  -0.138  -0.625  1.00  0.00           C
ATOM     10  C   UNK A   0       4.363   0.603  -1.368  1.00  0.00           C
ATOM     11  C   UNK A   0       2.993   0.421  -1.171  1.00  0.00           C
ATOM     12  CA  GLU A   1       8.967  -1.071  -0.996  1.00  0.00           C
ATOM     13  C   GLU A   1       9.473  -2.482  -0.671  1.00  0.00           C
ATOM     14  O   GLU A   1       9.250  -3.047   0.393  1.00  0.00           O
ATOM     15  OXT GLU A   1      10.167  -3.072  -1.667  1.00  0.00           O
ATOM     16  HXT GLU A   1      10.325  -2.509  -2.459  1.00  0.00           H
ATOM     17  CB  GLU A   1       9.770  -0.004  -0.232  1.00  0.00           C
ATOM     18  CG  GLU A   1      11.262   0.013  -0.542  1.00  0.00           C
ATOM     19  CD  GLU A   1      11.488   0.224  -2.009  1.00  0.00           C
ATOM     20  OE1 GLU A   1      11.424  -0.691  -2.819  1.00  0.00           O
ATOM     21  OE2 GLU A   1      11.660   1.514  -2.362  1.00  0.00           O
ATOM     22  HE2 GLU A   1      11.594   2.155  -1.625  1.00  0.00           H
ENDROOT
TORSDOF 0