MODEL 1
REMARK VINA RESULT:    -5.846      0.000      0.000
REMARK INTER + INTRA:          -5.846
REMARK INTER:                  -5.846
REMARK INTRA:                   0.000
REMARK UNBOUND:                 0.000
ROOT
ATOM      1  C   UNL     1      -3.124  14.362   7.590  1.00  0.00           C
ATOM      2  N   UNL     1      -2.759  15.077   6.467  1.00  0.00           N
ATOM      3  H   UNL     1      -3.355  15.717   5.968  1.00  0.00           H
ATOM      4  C   UNL     1      -1.486  14.719   6.106  1.00  0.00           C
ATOM      5  C   UNL     1      -0.653  15.111   5.050  1.00  0.00           C
ATOM      6  C   UNL     1       0.630  14.535   4.984  1.00  0.00           C
ATOM      7  C   UNL     1       1.015  13.587   5.948  1.00  0.00           C
ATOM      8  C   UNL     1       0.155  13.204   6.990  1.00  0.00           C
ATOM      9  C   UNL     1      -1.117  13.785   7.063  1.00  0.00           C
ATOM     10  N   UNL     1      -2.133  13.570   7.960  1.00  0.00           N
ATOM     11  C   UNL     1       1.547  14.932   3.906  1.00  0.00           C
ATOM     12  N   UNL     1       2.916  14.933   4.044  1.00  0.00           N
ATOM     13  H   UNL     1       3.419  14.688   4.884  1.00  0.00           H
ATOM     14  C   UNL     1       3.484  15.346   2.868  1.00  0.00           C
ATOM     15  C   UNL     1       4.815  15.528   2.476  1.00  0.00           C
ATOM     16  C   UNL     1       5.049  15.950   1.161  1.00  0.00           C
ATOM     17  C   UNL     1       3.967  16.260   0.326  1.00  0.00           C
ATOM     18  C   UNL     1       2.638  16.072   0.743  1.00  0.00           C
ATOM     19  C   UNL     1       2.401  15.604   2.043  1.00  0.00           C
ATOM     20  N   UNL     1       1.216  15.361   2.700  1.00  0.00           N
ATOM     21  N   UNL     1       6.353  16.283   0.765  1.00  0.00           N
ATOM     22  H   UNL     1       6.492  16.284  -0.240  1.00  0.00           H
ATOM     23  H   UNL     1       7.078  15.767   1.253  1.00  0.00           H
ATOM     24  C   UNL     1      -8.498  14.483   9.737  1.00  0.00           C
ATOM     25  C   UNL     1      -7.080  14.489   9.247  1.00  0.00           C
ATOM     26  C   UNL     1      -6.309  13.323   9.316  1.00  0.00           C
ATOM     27  C   UNL     1      -5.007  13.303   8.806  1.00  0.00           C
ATOM     28  C   UNL     1      -4.453  14.440   8.202  1.00  0.00           C
ATOM     29  C   UNL     1      -5.212  15.617   8.176  1.00  0.00           C
ATOM     30  C   UNL     1      -6.513  15.642   8.693  1.00  0.00           C
ENDROOT
TORSDOF 0
ENDMDL
MODEL 2
REMARK VINA RESULT:    -5.715      2.822      4.117
REMARK INTER + INTRA:          -5.715
REMARK INTER:                  -5.715
REMARK INTRA:                   0.000
REMARK UNBOUND:                 0.000
ROOT
ATOM      1  C   UNL     1      -0.867  14.563   5.290  1.00  0.00           C
ATOM      2  N   UNL     1      -1.036  14.189   3.972  1.00  0.00           N
ATOM      3  H   UNL     1      -1.866  13.765   3.591  1.00  0.00           H
ATOM      4  C   UNL     1       0.130  14.424   3.291  1.00  0.00           C
ATOM      5  C   UNL     1       0.511  14.211   1.960  1.00  0.00           C
ATOM      6  C   UNL     1       1.816  14.586   1.588  1.00  0.00           C
ATOM      7  C   UNL     1       2.683  15.129   2.552  1.00  0.00           C
ATOM      8  C   UNL     1       2.278  15.321   3.883  1.00  0.00           C
ATOM      9  C   UNL     1       0.976  14.959   4.251  1.00  0.00           C
ATOM     10  N   UNL     1       0.355  15.029   5.472  1.00  0.00           N
ATOM     11  C   UNL     1       2.253  14.402   0.196  1.00  0.00           C
ATOM     12  N   UNL     1       3.187  15.209  -0.413  1.00  0.00           N
ATOM     13  H   UNL     1       3.640  16.003   0.014  1.00  0.00           H
ATOM     14  C   UNL     1       3.379  14.778  -1.699  1.00  0.00           C
ATOM     15  C   UNL     1       4.200  15.238  -2.734  1.00  0.00           C
ATOM     16  C   UNL     1       4.167  14.534  -3.946  1.00  0.00           C
ATOM     17  C   UNL     1       3.267  13.474  -4.110  1.00  0.00           C
ATOM     18  C   UNL     1       2.450  13.030  -3.056  1.00  0.00           C
ATOM     19  C   UNL     1       2.514  13.703  -1.827  1.00  0.00           C
ATOM     20  N   UNL     1       1.816  13.493  -0.659  1.00  0.00           N
ATOM     21  N   UNL     1       4.861  15.039  -5.056  1.00  0.00           N
ATOM     22  H   UNL     1       5.040  14.350  -5.779  1.00  0.00           H
ATOM     23  H   UNL     1       5.692  15.571  -4.818  1.00  0.00           H
ATOM     24  C   UNL     1      -4.842  13.478   9.356  1.00  0.00           C
ATOM     25  C   UNL     1      -3.827  13.838   8.311  1.00  0.00           C
ATOM     26  C   UNL     1      -2.463  13.813   8.622  1.00  0.00           C
ATOM     27  C   UNL     1      -1.507  14.087   7.638  1.00  0.00           C
ATOM     28  C   UNL     1      -1.892  14.374   6.321  1.00  0.00           C
ATOM     29  C   UNL     1      -3.260  14.443   6.027  1.00  0.00           C
ATOM     30  C   UNL     1      -4.218  14.176   7.012  1.00  0.00           C
ENDROOT
TORSDOF 0
ENDMDL
MODEL 3
REMARK VINA RESULT:    -5.626      3.585      6.505
REMARK INTER + INTRA:          -5.626
REMARK INTER:                  -5.626
REMARK INTRA:                   0.000
REMARK UNBOUND:                 0.000
ROOT
ATOM      1  C   UNL     1       1.213  14.905   3.525  1.00  0.00           C
ATOM      2  N   UNL     1       0.899  14.559   2.226  1.00  0.00           N
ATOM      3  H   UNL     1       0.037  14.131   1.932  1.00  0.00           H
ATOM      4  C   UNL     1       1.977  14.826   1.422  1.00  0.00           C
ATOM      5  C   UNL     1       2.206  14.649   0.051  1.00  0.00           C
ATOM      6  C   UNL     1       3.456  15.051  -0.458  1.00  0.00           C
ATOM      7  C   UNL     1       4.421  15.585   0.414  1.00  0.00           C
ATOM      8  C   UNL     1       4.168  15.741   1.787  1.00  0.00           C
ATOM      9  C   UNL     1       2.921  15.352   2.292  1.00  0.00           C
ATOM     10  N   UNL     1       2.442  15.385   3.577  1.00  0.00           N
ATOM     11  C   UNL     1       3.733  14.904  -1.894  1.00  0.00           C
ATOM     12  N   UNL     1       4.581  15.739  -2.586  1.00  0.00           N
ATOM     13  H   UNL     1       5.070  16.530  -2.195  1.00  0.00           H
ATOM     14  C   UNL     1       4.630  15.340  -3.895  1.00  0.00           C
ATOM     15  C   UNL     1       5.322  15.835  -5.006  1.00  0.00           C
ATOM     16  C   UNL     1       5.160  15.158  -6.223  1.00  0.00           C
ATOM     17  C   UNL     1       4.259  14.088  -6.309  1.00  0.00           C
ATOM     18  C   UNL     1       3.574  13.610  -5.179  1.00  0.00           C
ATOM     19  C   UNL     1       3.770  14.255  -3.950  1.00  0.00           C
ATOM     20  N   UNL     1       3.212  14.009  -2.716  1.00  0.00           N
ATOM     21  N   UNL     1       5.716  15.698  -7.392  1.00  0.00           N
ATOM     22  H   UNL     1       5.819  15.028  -8.147  1.00  0.00           H
ATOM     23  H   UNL     1       6.562  16.237  -7.238  1.00  0.00           H
ATOM     24  C   UNL     1      -2.258  13.670   7.990  1.00  0.00           C
ATOM     25  C   UNL     1      -1.373  14.069   6.845  1.00  0.00           C
ATOM     26  C   UNL     1       0.018  14.057   6.997  1.00  0.00           C
ATOM     27  C   UNL     1       0.852  14.368   5.918  1.00  0.00           C
ATOM     28  C   UNL     1       0.315  14.678   4.661  1.00  0.00           C
ATOM     29  C   UNL     1      -1.078  14.733   4.526  1.00  0.00           C
ATOM     30  C   UNL     1      -1.914  14.430   5.608  1.00  0.00           C
ENDROOT
TORSDOF 0
ENDMDL
MODEL 4
REMARK VINA RESULT:    -5.552      2.865     10.732
REMARK INTER + INTRA:          -5.552
REMARK INTER:                  -5.552
REMARK INTRA:                   0.000
REMARK UNBOUND:                 0.000
ROOT
ATOM      1  C   UNL     1       3.342  14.938  -0.728  1.00  0.00           C
ATOM      2  N   UNL     1       2.102  14.481  -0.332  1.00  0.00           N
ATOM      3  H   UNL     1       1.411  14.076  -0.942  1.00  0.00           H
ATOM      4  C   UNL     1       1.939  14.737   1.005  1.00  0.00           C
ATOM      5  C   UNL     1       0.882  14.507   1.894  1.00  0.00           C
ATOM      6  C   UNL     1       1.061  14.896   3.235  1.00  0.00           C
ATOM      7  C   UNL     1       2.264  15.511   3.624  1.00  0.00           C
ATOM      8  C   UNL     1       3.305  15.740   2.708  1.00  0.00           C
ATOM      9  C   UNL     1       3.131  15.342   1.377  1.00  0.00           C
ATOM     10  N   UNL     1       3.976  15.467   0.303  1.00  0.00           N
ATOM     11  C   UNL     1      -0.014  14.655   4.209  1.00  0.00           C
ATOM     12  N   UNL     1       0.219  14.429   5.547  1.00  0.00           N
ATOM     13  H   UNL     1       1.128  14.384   5.982  1.00  0.00           H
ATOM     14  C   UNL     1      -0.979  14.245   6.183  1.00  0.00           C
ATOM     15  C   UNL     1      -1.307  13.982   7.518  1.00  0.00           C
ATOM     16  C   UNL     1      -2.666  13.871   7.840  1.00  0.00           C
ATOM     17  C   UNL     1      -3.629  13.932   6.824  1.00  0.00           C
ATOM     18  C   UNL     1      -3.276  14.195   5.490  1.00  0.00           C
ATOM     19  C   UNL     1      -1.920  14.354   5.171  1.00  0.00           C
ATOM     20  N   UNL     1      -1.310  14.589   3.960  1.00  0.00           N
ATOM     21  N   UNL     1      -3.039  13.468   9.131  1.00  0.00           N
ATOM     22  H   UNL     1      -3.997  13.697   9.374  1.00  0.00           H
ATOM     23  H   UNL     1      -2.382  13.740   9.856  1.00  0.00           H
ATOM     24  C   UNL     1       4.986  15.041  -6.277  1.00  0.00           C
ATOM     25  C   UNL     1       4.617  14.958  -4.825  1.00  0.00           C
ATOM     26  C   UNL     1       5.043  15.951  -3.935  1.00  0.00           C
ATOM     27  C   UNL     1       4.652  15.915  -2.593  1.00  0.00           C
ATOM     28  C   UNL     1       3.814  14.898  -2.115  1.00  0.00           C
ATOM     29  C   UNL     1       3.428  13.882  -2.999  1.00  0.00           C
ATOM     30  C   UNL     1       3.825  13.912  -4.341  1.00  0.00           C
ENDROOT
TORSDOF 0
ENDMDL
MODEL 5
REMARK VINA RESULT:    -4.851      6.529      8.830
REMARK INTER + INTRA:          -4.851
REMARK INTER:                  -4.851
REMARK INTRA:                   0.000
REMARK UNBOUND:                 0.000
ROOT
ATOM      1  C   UNL     1       0.066  14.089   1.202  1.00  0.00           C
ATOM      2  N   UNL     1      -0.323  13.028   0.411  1.00  0.00           N
ATOM      3  H   UNL     1      -0.991  12.322   0.674  1.00  0.00           H
ATOM      4  C   UNL     1       0.401  13.052  -0.753  1.00  0.00           C
ATOM      5  C   UNL     1       0.424  12.212  -1.874  1.00  0.00           C
ATOM      6  C   UNL     1       1.304  12.547  -2.921  1.00  0.00           C
ATOM      7  C   UNL     1       2.131  13.678  -2.797  1.00  0.00           C
ATOM      8  C   UNL     1       2.095  14.496  -1.656  1.00  0.00           C
ATOM      9  C   UNL     1       1.211  14.170  -0.620  1.00  0.00           C
ATOM     10  N   UNL     1       1.002  14.789   0.586  1.00  0.00           N
ATOM     11  C   UNL     1       1.347  11.707  -4.127  1.00  0.00           C
ATOM     12  N   UNL     1       1.664  12.196  -5.374  1.00  0.00           N
ATOM     13  H   UNL     1       1.873  13.159  -5.588  1.00  0.00           H
ATOM     14  C   UNL     1       1.622  11.170  -6.280  1.00  0.00           C
ATOM     15  C   UNL     1       1.852  11.120  -7.659  1.00  0.00           C
ATOM     16  C   UNL     1       1.742   9.872  -8.288  1.00  0.00           C
ATOM     17  C   UNL     1       1.325   8.756  -7.551  1.00  0.00           C
ATOM     18  C   UNL     1       1.098   8.831  -6.166  1.00  0.00           C
ATOM     19  C   UNL     1       1.253  10.068  -5.525  1.00  0.00           C
ATOM     20  N   UNL     1       1.071  10.417  -4.206  1.00  0.00           N
ATOM     21  N   UNL     1       1.821   9.795  -9.687  1.00  0.00           N
ATOM     22  H   UNL     1       2.034   8.867 -10.037  1.00  0.00           H
ATOM     23  H   UNL     1       2.407  10.510 -10.108  1.00  0.00           H
ATOM     24  C   UNL     1      -1.773  14.736   6.652  1.00  0.00           C
ATOM     25  C   UNL     1      -1.338  14.635   5.220  1.00  0.00           C
ATOM     26  C   UNL     1      -0.047  15.032   4.850  1.00  0.00           C
ATOM     27  C   UNL     1       0.388  14.884   3.529  1.00  0.00           C
ATOM     28  C   UNL     1      -0.448  14.321   2.555  1.00  0.00           C
ATOM     29  C   UNL     1      -1.754  13.969   2.920  1.00  0.00           C
ATOM     30  C   UNL     1      -2.194  14.123   4.241  1.00  0.00           C
ENDROOT
TORSDOF 0
ENDMDL
