ROOT
ATOM      1  C   UNL     1       6.885   0.121  -0.520  1.00  0.00           C
ATOM      2  N   UNL     1       7.633   1.270  -0.678  1.00  0.00           N
ATOM      3  H   UNL     1       7.273   2.209  -0.627  1.00  0.00           H
ATOM      4  C   UNL     1       8.923   0.922  -0.986  1.00  0.00           C
ATOM      5  C   UNL     1      10.069   1.677  -1.266  1.00  0.00           C
ATOM      6  C   UNL     1      11.260   0.977  -1.538  1.00  0.00           C
ATOM      7  C   UNL     1      11.253  -0.429  -1.542  1.00  0.00           C
ATOM      8  C   UNL     1      10.086  -1.161  -1.269  1.00  0.00           C
ATOM      9  C   UNL     1       8.904  -0.465  -0.987  1.00  0.00           C
ATOM     10  N   UNL     1       7.647  -0.941  -0.709  1.00  0.00           N
ATOM     11  C   UNL     1      12.493   1.728  -1.816  1.00  0.00           C
ATOM     12  N   UNL     1      13.749   1.251  -1.516  1.00  0.00           N
ATOM     13  H   UNL     1      13.947   0.370  -1.066  1.00  0.00           H
ATOM     14  C   UNL     1      14.682   2.177  -1.899  1.00  0.00           C
ATOM     15  C   UNL     1      16.079   2.196  -1.821  1.00  0.00           C
ATOM     16  C   UNL     1      16.740   3.317  -2.341  1.00  0.00           C
ATOM     17  C   UNL     1      15.996   4.400  -2.827  1.00  0.00           C
ATOM     18  C   UNL     1      14.593   4.359  -2.894  1.00  0.00           C
ATOM     19  C   UNL     1      13.930   3.219  -2.418  1.00  0.00           C
ATOM     20  N   UNL     1      12.585   2.936  -2.345  1.00  0.00           N
ATOM     21  N   UNL     1      18.125   3.448  -2.157  1.00  0.00           N
ATOM     22  H   UNL     1      18.566   4.100  -2.798  1.00  0.00           H
ATOM     23  H   UNL     1      18.621   2.564  -2.105  1.00  0.00           H
ATOM     24  C   UNL     1       1.138   0.230   0.163  1.00  0.00           C
ATOM     25  C   UNL     1       2.634   0.174   0.062  1.00  0.00           C
ATOM     26  C   UNL     1       3.251  -0.872  -0.634  1.00  0.00           C
ATOM     27  C   UNL     1       4.641  -0.899  -0.786  1.00  0.00           C
ATOM     28  C   UNL     1       5.442   0.125  -0.263  1.00  0.00           C
ATOM     29  C   UNL     1       4.824   1.145   0.472  1.00  0.00           C
ATOM     30  C   UNL     1       3.433   1.170   0.632  1.00  0.00           C
ENDROOT
TORSDOF 0