MODEL 1
REMARK VINA RESULT:    -6.530      0.000      0.000
REMARK INTER + INTRA:          -6.530
REMARK INTER:                  -6.530
REMARK INTRA:                   0.000
REMARK UNBOUND:                 0.000
ROOT
ATOM      1  C   UNL     1       6.600  12.613  11.540  1.00  0.00           C
ATOM      2  C   UNL     1       7.239  11.366  11.429  1.00  0.00           C
ATOM      3  C   UNL     1       8.452  11.218  10.738  1.00  0.00           C
ATOM      4  C   UNL     1       9.045  12.353  10.173  1.00  0.00           C
ATOM      5  N   UNL     1      10.219  12.474   9.477  1.00  0.00           N
ATOM      6  C   UNL     1      10.359  13.760   9.202  1.00  0.00           C
ATOM      7  N   UNL     1       9.271  14.458   9.681  1.00  0.00           N
ATOM      8  H   UNL     1       9.132  15.453   9.614  1.00  0.00           H
ATOM      9  C   UNL     1       8.423  13.583  10.313  1.00  0.00           C
ATOM     10  C   UNL     1       7.206  13.757  10.983  1.00  0.00           C
ATOM     11  C   UNL     1       1.824  10.451  13.077  1.00  0.00           C
ATOM     12  C   UNL     1       2.786   9.853  12.244  1.00  0.00           C
ATOM     13  C   UNL     1       3.985  10.485  11.876  1.00  0.00           C
ATOM     14  C   UNL     1       4.253  11.779  12.353  1.00  0.00           C
ATOM     15  C   UNL     1       5.315  12.737  12.244  1.00  0.00           C
ATOM     16  N   UNL     1       4.996  13.871  12.896  1.00  0.00           N
ATOM     17  N   UNL     1       3.794  13.620  13.435  1.00  0.00           N
ATOM     18  H   UNL     1       3.359  14.345  13.993  1.00  0.00           H
ATOM     19  C   UNL     1       3.291  12.384  13.147  1.00  0.00           C
ATOM     20  C   UNL     1       2.091  11.758  13.521  1.00  0.00           C
ATOM     21  N   UNL     1      -1.201   8.427  15.298  1.00  0.00           N
ATOM     22  C   UNL     1      -1.096   9.907  15.194  1.00  0.00           C
ATOM     23  C   UNL     1      -0.579  10.437  13.831  1.00  0.00           C
ATOM     24  N   UNL     1       0.679   9.771  13.450  1.00  0.00           N
ATOM     25  C   UNL     1       0.650   8.300  13.543  1.00  0.00           C
ATOM     26  C   UNL     1       0.121   7.866  14.929  1.00  0.00           C
ATOM     27  C   UNL     1      -2.492   6.414  14.519  1.00  0.00           C
ATOM     28  C   UNL     1      -2.303   7.926  14.460  1.00  0.00           C
ATOM     29  C   UNL     1      11.521  14.365   8.534  1.00  0.00           C
ATOM     30  C   UNL     1      11.626  15.744   8.302  1.00  0.00           C
ATOM     31  C   UNL     1      12.777  16.283   7.721  1.00  0.00           C
ATOM     32  C   UNL     1      13.825  15.441   7.377  1.00  0.00           C
ATOM     33  C   UNL     1      13.749  14.060   7.578  1.00  0.00           C
ATOM     34  C   UNL     1      12.590  13.529   8.146  1.00  0.00           C
ATOM     35  O   UNL     1      14.955  15.999   6.844  1.00  0.00           O
ATOM     36  H   UNL     1      15.567  15.248   6.710  1.00  0.00           H
ATOM     37  O   UNL     1      14.861  13.357   7.193  1.00  0.00           O
ATOM     38  C   UNL     1      14.823  11.947   7.388  1.00  0.00           C
ENDROOT
TORSDOF 0
ENDMDL
MODEL 2
REMARK VINA RESULT:    -6.297     12.305     16.741
REMARK INTER + INTRA:          -6.297
REMARK INTER:                  -6.297
REMARK INTRA:                   0.000
REMARK UNBOUND:                 0.000
ROOT
ATOM      1  C   UNL     1       1.489  15.352   2.072  1.00  0.00           C
ATOM      2  C   UNL     1       0.281  15.413   1.357  1.00  0.00           C
ATOM      3  C   UNL     1      -0.954  15.150   1.971  1.00  0.00           C
ATOM      4  C   UNL     1      -0.973  14.850   3.338  1.00  0.00           C
ATOM      5  N   UNL     1      -2.035  14.580   4.161  1.00  0.00           N
ATOM      6  C   UNL     1      -1.533  14.410   5.373  1.00  0.00           C
ATOM      7  N   UNL     1      -0.160  14.531   5.328  1.00  0.00           N
ATOM      8  H   UNL     1       0.465  14.457   6.114  1.00  0.00           H
ATOM      9  C   UNL     1       0.220  14.821   4.042  1.00  0.00           C
ATOM     10  C   UNL     1       1.466  15.063   3.452  1.00  0.00           C
ATOM     11  C   UNL     1       4.583  15.170  -2.427  1.00  0.00           C
ATOM     12  C   UNL     1       3.274  14.676  -2.289  1.00  0.00           C
ATOM     13  C   UNL     1       2.549  14.742  -1.087  1.00  0.00           C
ATOM     14  C   UNL     1       3.146  15.325   0.043  1.00  0.00           C
ATOM     15  C   UNL     1       2.774  15.601   1.400  1.00  0.00           C
ATOM     16  N   UNL     1       3.803  16.153   2.069  1.00  0.00           N
ATOM     17  N   UNL     1       4.777  16.261   1.154  1.00  0.00           N
ATOM     18  H   UNL     1       5.659  16.672   1.439  1.00  0.00           H
ATOM     19  C   UNL     1       4.449  15.782  -0.082  1.00  0.00           C
ATOM     20  C   UNL     1       5.179  15.721  -1.279  1.00  0.00           C
ATOM     21  N   UNL     1       6.515  16.210  -6.082  1.00  0.00           N
ATOM     22  C   UNL     1       7.193  16.198  -4.758  1.00  0.00           C
ATOM     23  C   UNL     1       6.707  15.097  -3.779  1.00  0.00           C
ATOM     24  N   UNL     1       5.240  15.125  -3.643  1.00  0.00           N
ATOM     25  C   UNL     1       4.503  15.152  -4.920  1.00  0.00           C
ATOM     26  C   UNL     1       5.057  16.274  -5.829  1.00  0.00           C
ATOM     27  C   UNL     1       6.282  14.984  -8.265  1.00  0.00           C
ATOM     28  C   UNL     1       6.920  15.042  -6.881  1.00  0.00           C
ATOM     29  C   UNL     1      -2.319  14.179   6.593  1.00  0.00           C
ATOM     30  C   UNL     1      -1.729  14.043   7.859  1.00  0.00           C
ATOM     31  C   UNL     1      -2.519  13.888   9.000  1.00  0.00           C
ATOM     32  C   UNL     1      -3.901  13.876   8.876  1.00  0.00           C
ATOM     33  C   UNL     1      -4.524  13.992   7.631  1.00  0.00           C
ATOM     34  C   UNL     1      -3.726  14.133   6.494  1.00  0.00           C
ATOM     35  O   UNL     1      -4.653  13.760  10.014  1.00  0.00           O
ATOM     36  H   UNL     1      -5.580  13.807   9.709  1.00  0.00           H
ATOM     37  O   UNL     1      -5.894  13.968   7.664  1.00  0.00           O
ATOM     38  C   UNL     1      -6.564  14.090   6.413  1.00  0.00           C
ENDROOT
TORSDOF 0
ENDMDL
MODEL 3
REMARK VINA RESULT:    -6.014     13.457     17.428
REMARK INTER + INTRA:          -6.014
REMARK INTER:                  -6.014
REMARK INTRA:                   0.000
REMARK UNBOUND:                 0.000
ROOT
ATOM      1  C   UNL     1      -0.282  14.689   1.590  1.00  0.00           C
ATOM      2  C   UNL     1      -1.452  14.680   0.813  1.00  0.00           C
ATOM      3  C   UNL     1      -2.724  14.560   1.396  1.00  0.00           C
ATOM      4  C   UNL     1      -2.817  14.478   2.790  1.00  0.00           C
ATOM      5  N   UNL     1      -3.925  14.377   3.590  1.00  0.00           N
ATOM      6  C   UNL     1      -3.486  14.382   4.838  1.00  0.00           C
ATOM      7  N   UNL     1      -2.109  14.446   4.844  1.00  0.00           N
ATOM      8  H   UNL     1      -1.523  14.474   5.664  1.00  0.00           H
ATOM      9  C   UNL     1      -1.659  14.518   3.551  1.00  0.00           C
ATOM     10  C   UNL     1      -0.378  14.621   2.994  1.00  0.00           C
ATOM     11  C   UNL     1       3.000  13.697  -2.664  1.00  0.00           C
ATOM     12  C   UNL     1       1.667  13.277  -2.518  1.00  0.00           C
ATOM     13  C   UNL     1       0.892  13.555  -1.380  1.00  0.00           C
ATOM     14  C   UNL     1       1.462  14.287  -0.324  1.00  0.00           C
ATOM     15  C   UNL     1       1.041  14.785   0.953  1.00  0.00           C
ATOM     16  N   UNL     1       2.062  15.398   1.581  1.00  0.00           N
ATOM     17  N   UNL     1       3.080  15.327   0.711  1.00  0.00           N
ATOM     18  H   UNL     1       3.965  15.746   0.974  1.00  0.00           H
ATOM     19  C   UNL     1       2.788  14.673  -0.451  1.00  0.00           C
ATOM     20  C   UNL     1       3.567  14.400  -1.586  1.00  0.00           C
ATOM     21  N   UNL     1       5.138  14.084  -6.332  1.00  0.00           N
ATOM     22  C   UNL     1       5.754  14.256  -4.989  1.00  0.00           C
ATOM     23  C   UNL     1       5.178  13.339  -3.879  1.00  0.00           C
ATOM     24  N   UNL     1       3.709  13.440  -3.824  1.00  0.00           N
ATOM     25  C   UNL     1       3.032  13.293  -5.125  1.00  0.00           C
ATOM     26  C   UNL     1       3.673  14.239  -6.167  1.00  0.00           C
ATOM     27  C   UNL     1       4.950  12.541  -8.309  1.00  0.00           C
ATOM     28  C   UNL     1       5.527  12.792  -6.920  1.00  0.00           C
ATOM     29  C   UNL     1      -4.336  14.372   6.038  1.00  0.00           C
ATOM     30  C   UNL     1      -3.809  14.415   7.337  1.00  0.00           C
ATOM     31  C   UNL     1      -4.655  14.468   8.447  1.00  0.00           C
ATOM     32  C   UNL     1      -6.030  14.486   8.256  1.00  0.00           C
ATOM     33  C   UNL     1      -6.590  14.428   6.977  1.00  0.00           C
ATOM     34  C   UNL     1      -5.737  14.361   5.875  1.00  0.00           C
ATOM     35  O   UNL     1      -6.836  14.576   9.359  1.00  0.00           O
ATOM     36  H   UNL     1      -7.746  14.607   9.003  1.00  0.00           H
ATOM     37  O   UNL     1      -7.961  14.457   6.944  1.00  0.00           O
ATOM     38  C   UNL     1      -8.568  14.406   5.657  1.00  0.00           C
ENDROOT
TORSDOF 0
ENDMDL
MODEL 4
REMARK VINA RESULT:    -5.873     12.974     13.398
REMARK INTER + INTRA:          -5.873
REMARK INTER:                  -5.873
REMARK INTRA:                   0.000
REMARK UNBOUND:                 0.000
ROOT
ATOM      1  C   UNL     1       2.872  14.401  -0.493  1.00  0.00           C
ATOM      2  C   UNL     1       2.506  13.136  -0.983  1.00  0.00           C
ATOM      3  C   UNL     1       2.754  12.760  -2.313  1.00  0.00           C
ATOM      4  C   UNL     1       3.410  13.665  -3.154  1.00  0.00           C
ATOM      5  N   UNL     1       3.781  13.530  -4.467  1.00  0.00           N
ATOM      6  C   UNL     1       4.415  14.645  -4.791  1.00  0.00           C
ATOM      7  N   UNL     1       4.422  15.505  -3.714  1.00  0.00           N
ATOM      8  H   UNL     1       4.848  16.418  -3.690  1.00  0.00           H
ATOM      9  C   UNL     1       3.795  14.899  -2.655  1.00  0.00           C
ATOM     10  C   UNL     1       3.546  15.306  -1.338  1.00  0.00           C
ATOM     11  C   UNL     1      -0.305  14.025   3.935  1.00  0.00           C
ATOM     12  C   UNL     1      -0.537  13.429   2.683  1.00  0.00           C
ATOM     13  C   UNL     1       0.320  13.591   1.582  1.00  0.00           C
ATOM     14  C   UNL     1       1.471  14.386   1.720  1.00  0.00           C
ATOM     15  C   UNL     1       2.574  14.784   0.895  1.00  0.00           C
ATOM     16  N   UNL     1       3.384  15.625   1.565  1.00  0.00           N
ATOM     17  N   UNL     1       2.834  15.720   2.784  1.00  0.00           N
ATOM     18  H   UNL     1       3.295  16.303   3.473  1.00  0.00           H
ATOM     19  C   UNL     1       1.684  15.002   2.944  1.00  0.00           C
ATOM     20  C   UNL     1       0.833  14.844   4.049  1.00  0.00           C
ATOM     21  N   UNL     1      -1.957  12.788   7.666  1.00  0.00           N
ATOM     22  C   UNL     1      -1.137  14.016   7.486  1.00  0.00           C
ATOM     23  C   UNL     1      -1.323  14.738   6.126  1.00  0.00           C
ATOM     24  N   UNL     1      -1.153  13.798   5.004  1.00  0.00           N
ATOM     25  C   UNL     1      -1.927  12.550   5.124  1.00  0.00           C
ATOM     26  C   UNL     1      -1.684  11.904   6.507  1.00  0.00           C
ATOM     27  C   UNL     1      -4.293  11.928   8.022  1.00  0.00           C
ATOM     28  C   UNL     1      -3.380  13.132   7.816  1.00  0.00           C
ATOM     29  C   UNL     1       5.061  14.909  -6.085  1.00  0.00           C
ATOM     30  C   UNL     1       5.751  16.100  -6.356  1.00  0.00           C
ATOM     31  C   UNL     1       6.405  16.283  -7.578  1.00  0.00           C
ATOM     32  C   UNL     1       6.373  15.270  -8.526  1.00  0.00           C
ATOM     33  C   UNL     1       5.681  14.077  -8.297  1.00  0.00           C
ATOM     34  C   UNL     1       5.020  13.909  -7.080  1.00  0.00           C
ATOM     35  O   UNL     1       7.051  15.459  -9.699  1.00  0.00           O
ATOM     36  H   UNL     1       6.928  14.627 -10.198  1.00  0.00           H
ATOM     37  O   UNL     1       5.741  13.168  -9.322  1.00  0.00           O
ATOM     38  C   UNL     1       5.053  11.937  -9.122  1.00  0.00           C
ENDROOT
TORSDOF 0
ENDMDL
MODEL 5
REMARK VINA RESULT:    -5.868      5.458     13.015
REMARK INTER + INTRA:          -5.868
REMARK INTER:                  -5.868
REMARK INTRA:                   0.000
REMARK UNBOUND:                 0.000
ROOT
ATOM      1  C   UNL     1       3.459  11.385  12.443  1.00  0.00           C
ATOM      2  C   UNL     1       3.433  10.164  11.748  1.00  0.00           C
ATOM      3  C   UNL     1       2.465   9.183  12.018  1.00  0.00           C
ATOM      4  C   UNL     1       1.489   9.451  12.984  1.00  0.00           C
ATOM      5  N   UNL     1       0.441   8.678  13.409  1.00  0.00           N
ATOM      6  C   UNL     1      -0.218   9.400  14.300  1.00  0.00           C
ATOM      7  N   UNL     1       0.418  10.610  14.478  1.00  0.00           N
ATOM      8  H   UNL     1       0.118  11.350  15.094  1.00  0.00           H
ATOM      9  C   UNL     1       1.504  10.670  13.643  1.00  0.00           C
ATOM     10  C   UNL     1       2.466  11.659  13.405  1.00  0.00           C
ATOM     11  C   UNL     1       8.553  12.595  10.884  1.00  0.00           C
ATOM     12  C   UNL     1       8.018  11.309  11.075  1.00  0.00           C
ATOM     13  C   UNL     1       6.699  11.080  11.500  1.00  0.00           C
ATOM     14  C   UNL     1       5.858  12.178  11.752  1.00  0.00           C
ATOM     15  C   UNL     1       4.500  12.386  12.163  1.00  0.00           C
ATOM     16  N   UNL     1       4.242  13.700  12.293  1.00  0.00           N
ATOM     17  N   UNL     1       5.385  14.302  11.932  1.00  0.00           N
ATOM     18  H   UNL     1       5.416  15.315  11.941  1.00  0.00           H
ATOM     19  C   UNL     1       6.395  13.447  11.597  1.00  0.00           C
ATOM     20  C   UNL     1       7.711  13.684  11.173  1.00  0.00           C
ATOM     21  N   UNL     1      11.959  13.585   8.519  1.00  0.00           N
ATOM     22  C   UNL     1      11.234  14.558   9.380  1.00  0.00           C
ATOM     23  C   UNL     1      10.655  13.971  10.693  1.00  0.00           C
ATOM     24  N   UNL     1       9.845  12.771  10.421  1.00  0.00           N
ATOM     25  C   UNL     1      10.498  11.768   9.560  1.00  0.00           C
ATOM     26  C   UNL     1      11.046  12.443   8.281  1.00  0.00           C
ATOM     27  C   UNL     1      14.053  12.208   8.315  1.00  0.00           C
ATOM     28  C   UNL     1      13.235  13.195   9.141  1.00  0.00           C
ATOM     29  C   UNL     1      -1.467   8.998  14.964  1.00  0.00           C
ATOM     30  C   UNL     1      -2.138   9.825  15.876  1.00  0.00           C
ATOM     31  C   UNL     1      -3.356   9.429  16.435  1.00  0.00           C
ATOM     32  C   UNL     1      -3.905   8.206  16.076  1.00  0.00           C
ATOM     33  C   UNL     1      -3.256   7.348  15.183  1.00  0.00           C
ATOM     34  C   UNL     1      -2.033   7.746  14.641  1.00  0.00           C
ATOM     35  O   UNL     1      -5.116   7.858  16.609  1.00  0.00           O
ATOM     36  H   UNL     1      -5.329   6.993  16.205  1.00  0.00           H
ATOM     37  O   UNL     1      -3.919   6.177  14.921  1.00  0.00           O
ATOM     38  C   UNL     1      -3.291   5.280  14.010  1.00  0.00           C
ENDROOT
TORSDOF 0
ENDMDL
