ROOT
ATOM      1  C   UNL     1       8.954  -7.931   1.626  1.00  0.00           C
ATOM      2  C   UNL     1      10.074  -7.155   1.282  1.00  0.00           C
ATOM      3  C   UNL     1      11.375  -7.534   1.650  1.00  0.00           C
ATOM      4  C   UNL     1      11.551  -8.732   2.352  1.00  0.00           C
ATOM      5  N   UNL     1      12.703  -9.323   2.801  1.00  0.00           N
ATOM      6  C   UNL     1      12.342 -10.466   3.360  1.00  0.00           C
ATOM      7  N   UNL     1      10.970 -10.595   3.308  1.00  0.00           N
ATOM      8  H   UNL     1      10.437 -11.377   3.654  1.00  0.00           H
ATOM      9  C   UNL     1      10.444  -9.506   2.661  1.00  0.00           C
ATOM     10  C   UNL     1       9.135  -9.144   2.320  1.00  0.00           C
ATOM     11  C   UNL     1       5.389  -3.921   0.597  1.00  0.00           C
ATOM     12  C   UNL     1       6.716  -3.771   1.036  1.00  0.00           C
ATOM     13  C   UNL     1       7.567  -4.857   1.300  1.00  0.00           C
ATOM     14  C   UNL     1       7.085  -6.165   1.124  1.00  0.00           C
ATOM     15  C   UNL     1       7.598  -7.498   1.255  1.00  0.00           C
ATOM     16  N   UNL     1       6.636  -8.402   0.993  1.00  0.00           N
ATOM     17  N   UNL     1       5.565  -7.665   0.665  1.00  0.00           N
ATOM     18  H   UNL     1       4.711  -8.148   0.411  1.00  0.00           H
ATOM     19  C   UNL     1       5.766  -6.316   0.724  1.00  0.00           C
ATOM     20  C   UNL     1       4.910  -5.236   0.457  1.00  0.00           C
ATOM     21  N   UNL     1       3.042  -0.975  -1.400  1.00  0.00           N
ATOM     22  C   UNL     1       2.515  -2.290  -0.946  1.00  0.00           C
ATOM     23  C   UNL     1       3.131  -2.827   0.372  1.00  0.00           C
ATOM     24  N   UNL     1       4.603  -2.821   0.305  1.00  0.00           N
ATOM     25  C   UNL     1       5.194  -1.550  -0.152  1.00  0.00           C
ATOM     26  C   UNL     1       4.518  -1.092  -1.465  1.00  0.00           C
ATOM     27  C   UNL     1       3.062   1.492  -0.914  1.00  0.00           C
ATOM     28  C   UNL     1       2.579   0.103  -0.511  1.00  0.00           C
ATOM     29  C   UNL     1      13.263 -11.472   3.909  1.00  0.00           C
ATOM     30  C   UNL     1      12.819 -12.684   4.458  1.00  0.00           C
ATOM     31  C   UNL     1      13.733 -13.639   4.910  1.00  0.00           C
ATOM     32  C   UNL     1      15.093 -13.383   4.806  1.00  0.00           C
ATOM     33  C   UNL     1      15.572 -12.180   4.280  1.00  0.00           C
ATOM     34  C   UNL     1      14.651 -11.226   3.844  1.00  0.00           C
ATOM     35  O   UNL     1      15.968 -14.350   5.222  1.00  0.00           O
ATOM     36  H   UNL     1      16.855 -13.985   5.032  1.00  0.00           H
ATOM     37  O   UNL     1      16.938 -12.070   4.237  1.00  0.00           O
ATOM     38  C   UNL     1      17.463 -10.860   3.701  1.00  0.00           C
ENDROOT
TORSDOF 0