REMARK  Name = *****
REMARK  4 active torsions:
REMARK  status: ('A' for Active; 'I' for Inactive)
REMARK    1  A    between atoms: C_1  and  C_2
REMARK    2  A    between atoms: C_5  and  C_8
REMARK    3  A    between atoms: C_8  and  C_9
REMARK    4  A    between atoms: C_9  and  C_11
REMARK                            x       y       z     vdW  Elec       q    Type
REMARK                         _______ _______ _______ _____ _____    ______ ____
ROOT
ATOM      1  C   UNL     1       7.273  -1.520  -0.694  0.00  0.00    +0.168 C 
ATOM      2  O   UNL     1       7.292  -2.059  -1.801  0.00  0.00    -0.292 OA
ENDROOT
BRANCH   1   3
ATOM      3  C   UNL     1       7.929  -2.207   0.449  0.00  0.00    +0.021 A 
ATOM      4  C   UNL     1       9.041  -3.036   0.175  0.00  0.00    +0.015 A 
ATOM      5  C   UNL     1       9.710  -3.700   1.208  0.00  0.00    +0.050 A 
ATOM      6  C   UNL     1       9.237  -3.525   2.489  0.00  0.00    +0.166 A 
ATOM      7  O   UNL     1       9.754  -4.093   3.610  0.00  0.00    -0.453 OA
ATOM      8  C   UNL     1       8.865  -3.568   4.617  0.00  0.00    +0.466 C 
ATOM      9  O   UNL     1       7.842  -2.701   4.082  0.00  0.00    -0.453 OA
ATOM     10  C   UNL     1       8.147  -2.728   2.757  0.00  0.00    +0.167 A 
ATOM     11  C   UNL     1       7.469  -2.053   1.763  0.00  0.00    +0.060 A 
ENDBRANCH   1   3
BRANCH   1  12
ATOM     12  C   UNL     1       6.658  -0.153  -0.476  0.00  0.00    +0.114 C 
BRANCH  12  17
ATOM     13  C   UNL     1       0.899   0.345   0.272  0.00  0.00    +0.044 C 
ATOM     14  C   UNL     1       2.384   0.162   0.156  0.00  0.00    -0.050 A 
ATOM     15  C   UNL     1       2.904  -0.909  -0.578  0.00  0.00    +0.003 A 
ATOM     16  C   UNL     1       4.284  -1.046  -0.761  0.00  0.00    +0.004 A 
ATOM     17  C   UNL     1       5.173  -0.121  -0.201  0.00  0.00    -0.040 A 
ATOM     18  C   UNL     1       4.646   0.943   0.547  0.00  0.00    +0.004 A 
ATOM     19  C   UNL     1       3.267   1.083   0.725  0.00  0.00    +0.003 A 
ENDBRANCH  12  17
ENDBRANCH   1  12
TORSDOF 3
