MODEL 1
REMARK VINA RESULT:    -5.749      0.000      0.000
REMARK INTER + INTRA:          -5.749
REMARK INTER:                  -5.749
REMARK INTRA:                   0.000
REMARK UNBOUND:                 0.000
ROOT
ATOM      1  C   UNL     1      -2.521  14.260   7.304  1.00  0.00           C
ATOM      2  N   UNL     1      -2.289  14.862   6.085  1.00  0.00           N
ATOM      3  H   UNL     1      -2.986  15.327   5.524  1.00  0.00           H
ATOM      4  C   UNL     1      -0.980  14.660   5.731  1.00  0.00           C
ATOM      5  C   UNL     1      -0.233  15.028   4.604  1.00  0.00           C
ATOM      6  C   UNL     1       1.123  14.653   4.573  1.00  0.00           C
ATOM      7  C   UNL     1       1.665  13.915   5.640  1.00  0.00           C
ATOM      8  C   UNL     1       0.890  13.549   6.752  1.00  0.00           C
ATOM      9  C   UNL     1      -0.456  13.934   6.790  1.00  0.00           C
ATOM     10  N   UNL     1      -1.413  13.688   7.742  1.00  0.00           N
ATOM     11  C   UNL     1       1.950  15.031   3.420  1.00  0.00           C
ATOM     12  N   UNL     1       3.309  15.246   3.502  1.00  0.00           N
ATOM     13  H   UNL     1       3.857  15.189   4.346  1.00  0.00           H
ATOM     14  C   UNL     1       3.788  15.562   2.260  1.00  0.00           C
ATOM     15  C   UNL     1       5.073  15.854   1.796  1.00  0.00           C
ATOM     16  C   UNL     1       5.197  16.129   0.430  1.00  0.00           C
ATOM     17  C   UNL     1       4.085  16.112  -0.417  1.00  0.00           C
ATOM     18  C   UNL     1       2.806  15.822   0.081  1.00  0.00           C
ATOM     19  C   UNL     1       2.663  15.545   1.450  1.00  0.00           C
ATOM     20  N   UNL     1       1.537  15.241   2.182  1.00  0.00           N
ATOM     21  C   UNL     1      -7.816  13.833   9.599  1.00  0.00           C
ATOM     22  C   UNL     1      -6.424  13.994   9.064  1.00  0.00           C
ATOM     23  C   UNL     1      -5.477  12.982   9.258  1.00  0.00           C
ATOM     24  C   UNL     1      -4.195  13.095   8.710  1.00  0.00           C
ATOM     25  C   UNL     1      -3.838  14.213   7.945  1.00  0.00           C
ATOM     26  C   UNL     1      -4.774  15.243   7.789  1.00  0.00           C
ATOM     27  C   UNL     1      -6.056  15.135   8.343  1.00  0.00           C
ENDROOT
TORSDOF 0
ENDMDL
MODEL 2
REMARK VINA RESULT:    -5.596      2.246      3.462
REMARK INTER + INTRA:          -5.596
REMARK INTER:                  -5.596
REMARK INTRA:                   0.000
REMARK UNBOUND:                 0.000
ROOT
ATOM      1  C   UNL     1      -0.725  14.622   5.188  1.00  0.00           C
ATOM      2  N   UNL     1      -0.879  14.281   3.861  1.00  0.00           N
ATOM      3  H   UNL     1      -1.705  13.865   3.459  1.00  0.00           H
ATOM      4  C   UNL     1       0.295  14.530   3.198  1.00  0.00           C
ATOM      5  C   UNL     1       0.691  14.349   1.866  1.00  0.00           C
ATOM      6  C   UNL     1       2.001  14.730   1.520  1.00  0.00           C
ATOM      7  C   UNL     1       2.858  15.247   2.508  1.00  0.00           C
ATOM      8  C   UNL     1       2.438  15.408   3.838  1.00  0.00           C
ATOM      9  C   UNL     1       1.131  15.040   4.180  1.00  0.00           C
ATOM     10  N   UNL     1       0.496  15.083   5.396  1.00  0.00           N
ATOM     11  C   UNL     1       2.455  14.575   0.133  1.00  0.00           C
ATOM     12  N   UNL     1       3.411  15.383  -0.445  1.00  0.00           N
ATOM     13  H   UNL     1       3.868  16.158   0.008  1.00  0.00           H
ATOM     14  C   UNL     1       3.626  14.971  -1.732  1.00  0.00           C
ATOM     15  C   UNL     1       4.486  15.429  -2.732  1.00  0.00           C
ATOM     16  C   UNL     1       4.444  14.748  -3.954  1.00  0.00           C
ATOM     17  C   UNL     1       3.582  13.666  -4.151  1.00  0.00           C
ATOM     18  C   UNL     1       2.725  13.233  -3.128  1.00  0.00           C
ATOM     19  C   UNL     1       2.752  13.907  -1.897  1.00  0.00           C
ATOM     20  N   UNL     1       2.021  13.691  -0.749  1.00  0.00           N
ATOM     21  C   UNL     1      -4.742  13.444   9.184  1.00  0.00           C
ATOM     22  C   UNL     1      -3.716  13.828   8.158  1.00  0.00           C
ATOM     23  C   UNL     1      -2.355  13.792   8.481  1.00  0.00           C
ATOM     24  C   UNL     1      -1.389  14.088   7.514  1.00  0.00           C
ATOM     25  C   UNL     1      -1.761  14.410   6.203  1.00  0.00           C
ATOM     26  C   UNL     1      -3.125  14.487   5.895  1.00  0.00           C
ATOM     27  C   UNL     1      -4.094  14.198   6.864  1.00  0.00           C
ENDROOT
TORSDOF 0
ENDMDL
MODEL 3
REMARK VINA RESULT:    -5.506      3.025      5.739
REMARK INTER + INTRA:          -5.506
REMARK INTER:                  -5.506
REMARK INTRA:                   0.000
REMARK UNBOUND:                 0.000
ROOT
ATOM      1  C   UNL     1       1.201  14.943   3.555  1.00  0.00           C
ATOM      2  N   UNL     1       0.875  14.621   2.254  1.00  0.00           N
ATOM      3  H   UNL     1       0.005  14.205   1.958  1.00  0.00           H
ATOM      4  C   UNL     1       1.949  14.891   1.446  1.00  0.00           C
ATOM      5  C   UNL     1       2.168  14.734   0.071  1.00  0.00           C
ATOM      6  C   UNL     1       3.418  15.132  -0.438  1.00  0.00           C
ATOM      7  C   UNL     1       4.395  15.640   0.437  1.00  0.00           C
ATOM      8  C   UNL     1       4.153  15.776   1.813  1.00  0.00           C
ATOM      9  C   UNL     1       2.905  15.392   2.318  1.00  0.00           C
ATOM     10  N   UNL     1       2.435  15.410   3.608  1.00  0.00           N
ATOM     11  C   UNL     1       3.686  15.002  -1.875  1.00  0.00           C
ATOM     12  N   UNL     1       4.553  15.827  -2.561  1.00  0.00           N
ATOM     13  H   UNL     1       5.061  16.599  -2.159  1.00  0.00           H
ATOM     14  C   UNL     1       4.598  15.437  -3.872  1.00  0.00           C
ATOM     15  C   UNL     1       5.316  15.918  -4.969  1.00  0.00           C
ATOM     16  C   UNL     1       5.118  15.256  -6.185  1.00  0.00           C
ATOM     17  C   UNL     1       4.244  14.171  -6.285  1.00  0.00           C
ATOM     18  C   UNL     1       3.532  13.715  -5.166  1.00  0.00           C
ATOM     19  C   UNL     1       3.717  14.369  -3.938  1.00  0.00           C
ATOM     20  N   UNL     1       3.145  14.129  -2.708  1.00  0.00           N
ATOM     21  C   UNL     1      -2.246  13.669   8.025  1.00  0.00           C
ATOM     22  C   UNL     1      -1.368  14.077   6.880  1.00  0.00           C
ATOM     23  C   UNL     1       0.025  14.047   7.019  1.00  0.00           C
ATOM     24  C   UNL     1       0.853  14.366   5.939  1.00  0.00           C
ATOM     25  C   UNL     1       0.309  14.706   4.693  1.00  0.00           C
ATOM     26  C   UNL     1      -1.085  14.777   4.569  1.00  0.00           C
ATOM     27  C   UNL     1      -1.915  14.464   5.652  1.00  0.00           C
ENDROOT
TORSDOF 0
ENDMDL
MODEL 4
REMARK VINA RESULT:    -5.424      2.932     10.806
REMARK INTER + INTRA:          -5.424
REMARK INTER:                  -5.424
REMARK INTRA:                   0.000
REMARK UNBOUND:                 0.000
ROOT
ATOM      1  C   UNL     1       4.020  15.188  -1.539  1.00  0.00           C
ATOM      2  N   UNL     1       2.804  14.737  -1.071  1.00  0.00           N
ATOM      3  H   UNL     1       2.063  14.362  -1.643  1.00  0.00           H
ATOM      4  C   UNL     1       2.741  14.950   0.282  1.00  0.00           C
ATOM      5  C   UNL     1       1.745  14.707   1.237  1.00  0.00           C
ATOM      6  C   UNL     1       2.027  15.051   2.572  1.00  0.00           C
ATOM      7  C   UNL     1       3.265  15.637   2.892  1.00  0.00           C
ATOM      8  C   UNL     1       4.241  15.880   1.912  1.00  0.00           C
ATOM      9  C   UNL     1       3.965  15.527   0.586  1.00  0.00           C
ATOM     10  N   UNL     1       4.735  15.674  -0.541  1.00  0.00           N
ATOM     11  C   UNL     1       1.021  14.799   3.611  1.00  0.00           C
ATOM     12  N   UNL     1       1.340  14.543   4.927  1.00  0.00           N
ATOM     13  H   UNL     1       2.275  14.482   5.298  1.00  0.00           H
ATOM     14  C   UNL     1       0.185  14.372   5.642  1.00  0.00           C
ATOM     15  C   UNL     1      -0.051  14.110   6.993  1.00  0.00           C
ATOM     16  C   UNL     1      -1.390  14.003   7.385  1.00  0.00           C
ATOM     17  C   UNL     1      -2.429  14.152   6.462  1.00  0.00           C
ATOM     18  C   UNL     1      -2.159  14.409   5.110  1.00  0.00           C
ATOM     19  C   UNL     1      -0.821  14.517   4.699  1.00  0.00           C
ATOM     20  N   UNL     1      -0.291  14.754   3.450  1.00  0.00           N
ATOM     21  C   UNL     1       5.269  15.453  -7.184  1.00  0.00           C
ATOM     22  C   UNL     1       5.000  15.327  -5.713  1.00  0.00           C
ATOM     23  C   UNL     1       5.503  16.284  -4.824  1.00  0.00           C
ATOM     24  C   UNL     1       5.206  16.209  -3.459  1.00  0.00           C
ATOM     25  C   UNL     1       4.390  15.187  -2.957  1.00  0.00           C
ATOM     26  C   UNL     1       3.926  14.207  -3.843  1.00  0.00           C
ATOM     27  C   UNL     1       4.227  14.276  -5.209  1.00  0.00           C
ENDROOT
TORSDOF 0
ENDMDL
MODEL 5
REMARK VINA RESULT:    -5.360      2.487      9.688
REMARK INTER + INTRA:          -5.360
REMARK INTER:                  -5.360
REMARK INTRA:                   0.000
REMARK UNBOUND:                 0.000
ROOT
ATOM      1  C   UNL     1       1.450  13.557   0.562  1.00  0.00           C
ATOM      2  N   UNL     1       0.171  13.448   1.064  1.00  0.00           N
ATOM      3  H   UNL     1      -0.654  13.250   0.518  1.00  0.00           H
ATOM      4  C   UNL     1       0.194  13.723   2.407  1.00  0.00           C
ATOM      5  C   UNL     1      -0.809  13.777   3.384  1.00  0.00           C
ATOM      6  C   UNL     1      -0.418  14.091   4.699  1.00  0.00           C
ATOM      7  C   UNL     1       0.934  14.357   4.978  1.00  0.00           C
ATOM      8  C   UNL     1       1.917  14.307   3.977  1.00  0.00           C
ATOM      9  C   UNL     1       1.531  13.982   2.671  1.00  0.00           C
ATOM     10  N   UNL     1       2.287  13.886   1.530  1.00  0.00           N
ATOM     11  C   UNL     1      -1.432  14.142   5.760  1.00  0.00           C
ATOM     12  N   UNL     1      -1.158  13.867   7.082  1.00  0.00           N
ATOM     13  H   UNL     1      -0.261  13.586   7.444  1.00  0.00           H
ATOM     14  C   UNL     1      -2.302  14.021   7.818  1.00  0.00           C
ATOM     15  C   UNL     1      -2.566  13.881   9.182  1.00  0.00           C
ATOM     16  C   UNL     1      -3.880  14.132   9.594  1.00  0.00           C
ATOM     17  C   UNL     1      -4.867  14.503   8.678  1.00  0.00           C
ATOM     18  C   UNL     1      -4.573  14.629   7.313  1.00  0.00           C
ATOM     19  C   UNL     1      -3.260  14.379   6.881  1.00  0.00           C
ATOM     20  N   UNL     1      -2.716  14.425   5.617  1.00  0.00           N
ATOM     21  C   UNL     1       2.597  13.276  -5.103  1.00  0.00           C
ATOM     22  C   UNL     1       2.339  13.279  -3.625  1.00  0.00           C
ATOM     23  C   UNL     1       3.086  14.112  -2.785  1.00  0.00           C
ATOM     24  C   UNL     1       2.812  14.169  -1.415  1.00  0.00           C
ATOM     25  C   UNL     1       1.776  13.407  -0.859  1.00  0.00           C
ATOM     26  C   UNL     1       1.059  12.542  -1.695  1.00  0.00           C
ATOM     27  C   UNL     1       1.337  12.479  -3.066  1.00  0.00           C
ENDROOT
TORSDOF 0
ENDMDL
