ROOT
ATOM      1  C   UNL     1       6.784   0.151  -0.679  1.00  0.00           C
ATOM      2  N   UNL     1       7.532   1.298  -0.842  1.00  0.00           N
ATOM      3  H   UNL     1       7.172   2.239  -0.796  1.00  0.00           H
ATOM      4  C   UNL     1       8.822   0.949  -1.148  1.00  0.00           C
ATOM      5  C   UNL     1       9.969   1.702  -1.431  1.00  0.00           C
ATOM      6  C   UNL     1      11.158   0.999  -1.701  1.00  0.00           C
ATOM      7  C   UNL     1      11.149  -0.407  -1.701  1.00  0.00           C
ATOM      8  C   UNL     1       9.982  -1.137  -1.425  1.00  0.00           C
ATOM      9  C   UNL     1       8.802  -0.438  -1.144  1.00  0.00           C
ATOM     10  N   UNL     1       7.545  -0.913  -0.864  1.00  0.00           N
ATOM     11  C   UNL     1      12.389   1.746  -1.986  1.00  0.00           C
ATOM     12  N   UNL     1      13.649   1.265  -1.702  1.00  0.00           N
ATOM     13  H   UNL     1      13.848   0.382  -1.259  1.00  0.00           H
ATOM     14  C   UNL     1      14.580   2.184  -2.104  1.00  0.00           C
ATOM     15  C   UNL     1      15.976   2.185  -2.061  1.00  0.00           C
ATOM     16  C   UNL     1      16.617   3.315  -2.581  1.00  0.00           C
ATOM     17  C   UNL     1      15.887   4.381  -3.113  1.00  0.00           C
ATOM     18  C   UNL     1      14.485   4.353  -3.136  1.00  0.00           C
ATOM     19  C   UNL     1      13.825   3.228  -2.616  1.00  0.00           C
ATOM     20  N   UNL     1      12.479   2.955  -2.514  1.00  0.00           N
ATOM     21  C   UNL     1       1.038   0.261  -0.001  1.00  0.00           C
ATOM     22  C   UNL     1       2.534   0.206  -0.101  1.00  0.00           C
ATOM     23  C   UNL     1       3.152  -0.841  -0.794  1.00  0.00           C
ATOM     24  C   UNL     1       4.542  -0.868  -0.946  1.00  0.00           C
ATOM     25  C   UNL     1       5.341   0.157  -0.423  1.00  0.00           C
ATOM     26  C   UNL     1       4.723   1.180   0.307  1.00  0.00           C
ATOM     27  C   UNL     1       3.332   1.205   0.466  1.00  0.00           C
ENDROOT
TORSDOF 0