REMARK  Name = *****
REMARK  2 active torsions:
REMARK  status: ('A' for Active; 'I' for Inactive)
REMARK    1  A    between atoms: C_1  and  C_2
REMARK    2  A    between atoms: C_5  and  C_8
REMARK                            x       y       z     vdW  Elec       q    Type
REMARK                         _______ _______ _______ _____ _____    ______ ____
ROOT
ATOM      1  C   UNL     1       6.678  -0.009  -0.511  0.00  0.00    +0.139 A 
ATOM      2  N   UNL     1       7.448   1.120  -0.665  0.00  0.00    -0.337 N 
ATOM      3  H   UNL     1       7.128   2.079  -0.617  0.00  0.00    +0.167 HD
ATOM      4  C   UNL     1       8.729   0.741  -0.978  0.00  0.00    +0.078 A 
ATOM      5  C   UNL     1       9.889   1.468  -1.262  0.00  0.00    +0.059 A 
ATOM      6  C   UNL     1       9.883   2.938  -1.270  0.00  0.00    +0.197 C 
ATOM      7  O   UNL     1       8.847   3.549  -1.028  0.00  0.00    -0.286 OA
ATOM      8  C   UNL     1      11.141   3.651  -1.573  0.00  0.00    +0.033 A 
ATOM      9  C   UNL     1      11.160   5.052  -1.580  0.00  0.00    +0.012 A 
ATOM     10  C   UNL     1      12.347   5.732  -1.856  0.00  0.00    +0.001 A 
ATOM     11  C   UNL     1      13.515   5.017  -2.126  0.00  0.00    +0.001 A 
ATOM     12  C   UNL     1      13.497   3.622  -2.123  0.00  0.00    +0.012 A 
ATOM     13  C   UNL     1      12.307   2.936  -1.846  0.00  0.00    +0.033 A 
ATOM     14  C   UNL     1      12.302   1.458  -1.847  0.00  0.00    +0.195 C 
ATOM     15  O   UNL     1      13.328   0.835  -2.096  0.00  0.00    -0.287 OA
ATOM     16  C   UNL     1      11.048   0.740  -1.543  0.00  0.00    +0.035 A 
ATOM     17  C   UNL     1      11.033  -0.663  -1.542  0.00  0.00    +0.014 A 
ATOM     18  C   UNL     1       9.852  -1.368  -1.261  0.00  0.00    +0.030 A 
ATOM     19  C   UNL     1       8.684  -0.645  -0.979  0.00  0.00    +0.090 A 
ATOM     20  N   UNL     1       7.418  -1.089  -0.699  0.00  0.00    -0.228 NA
ENDROOT
BRANCH   1  25
ATOM     21  C   UNL     1       0.939   0.185   0.144  0.00  0.00    +0.044 C 
ATOM     22  C   UNL     1       2.434   0.113   0.048  0.00  0.00    -0.050 A 
ATOM     23  C   UNL     1       3.038  -0.943  -0.642  0.00  0.00    +0.004 A 
ATOM     24  C   UNL     1       4.427  -0.990  -0.788  0.00  0.00    +0.012 A 
ATOM     25  C   UNL     1       5.237   0.025  -0.263  0.00  0.00    +0.017 A 
ATOM     26  C   UNL     1       4.632   1.061   0.460  0.00  0.00    +0.012 A 
ATOM     27  C   UNL     1       3.242   1.105   0.614  0.00  0.00    +0.004 A 
ENDBRANCH   1  25
TORSDOF 1
