MODEL 1
REMARK VINA RESULT:    -5.870      0.000      0.000
REMARK INTER + INTRA:          -5.870
REMARK INTER:                  -5.870
REMARK INTRA:                   0.000
REMARK UNBOUND:                 0.000
ROOT
ATOM      1  C   UNL     1      -3.046  14.369   7.557  1.00  0.00           C
ATOM      2  N   UNL     1      -2.696  15.057   6.414  1.00  0.00           N
ATOM      3  H   UNL     1      -3.306  15.665   5.890  1.00  0.00           H
ATOM      4  C   UNL     1      -1.415  14.716   6.065  1.00  0.00           C
ATOM      5  C   UNL     1      -0.588  15.092   4.998  1.00  0.00           C
ATOM      6  C   UNL     1       0.707  14.543   4.954  1.00  0.00           C
ATOM      7  C   UNL     1       1.112  13.635   5.950  1.00  0.00           C
ATOM      8  C   UNL     1       0.258  13.268   7.001  1.00  0.00           C
ATOM      9  C   UNL     1      -1.026  13.822   7.052  1.00  0.00           C
ATOM     10  N   UNL     1      -2.039  13.612   7.953  1.00  0.00           N
ATOM     11  C   UNL     1       1.618  14.927   3.865  1.00  0.00           C
ATOM     12  N   UNL     1       2.989  14.964   4.009  1.00  0.00           N
ATOM     13  H   UNL     1       3.491  14.759   4.858  1.00  0.00           H
ATOM     14  C   UNL     1       3.552  15.351   2.823  1.00  0.00           C
ATOM     15  C   UNL     1       4.879  15.552   2.432  1.00  0.00           C
ATOM     16  C   UNL     1       5.111  15.935   1.103  1.00  0.00           C
ATOM     17  C   UNL     1       4.027  16.192   0.255  1.00  0.00           C
ATOM     18  C   UNL     1       2.699  15.987   0.671  1.00  0.00           C
ATOM     19  C   UNL     1       2.466  15.558   1.985  1.00  0.00           C
ATOM     20  N   UNL     1       1.283  15.308   2.645  1.00  0.00           N
ATOM     21  N   UNL     1       6.410  16.284   0.703  1.00  0.00           N
ATOM     22  H   UNL     1       6.552  16.253  -0.302  1.00  0.00           H
ATOM     23  H   UNL     1       7.142  15.800   1.211  1.00  0.00           H
ATOM     24  C   UNL     1      -8.420  14.433   9.706  1.00  0.00           C
ATOM     25  C   UNL     1      -7.003  14.456   9.212  1.00  0.00           C
ATOM     26  C   UNL     1      -6.206  13.311   9.317  1.00  0.00           C
ATOM     27  C   UNL     1      -4.905  13.305   8.805  1.00  0.00           C
ATOM     28  C   UNL     1      -4.378  14.435   8.165  1.00  0.00           C
ATOM     29  C   UNL     1      -5.165  15.593   8.100  1.00  0.00           C
ATOM     30  C   UNL     1      -6.466  15.603   8.619  1.00  0.00           C
ENDROOT
TORSDOF 0
ENDMDL
MODEL 2
REMARK VINA RESULT:    -5.724      2.708      4.154
REMARK INTER + INTRA:          -5.724
REMARK INTER:                  -5.724
REMARK INTRA:                   0.000
REMARK UNBOUND:                 0.000
ROOT
ATOM      1  C   UNL     1      -0.689  14.624   5.136  1.00  0.00           C
ATOM      2  N   UNL     1      -0.827  14.269   3.811  1.00  0.00           N
ATOM      3  H   UNL     1      -1.643  13.834   3.406  1.00  0.00           H
ATOM      4  C   UNL     1       0.349  14.528   3.156  1.00  0.00           C
ATOM      5  C   UNL     1       0.760  14.338   1.830  1.00  0.00           C
ATOM      6  C   UNL     1       2.066  14.738   1.490  1.00  0.00           C
ATOM      7  C   UNL     1       2.906  15.280   2.480  1.00  0.00           C
ATOM      8  C   UNL     1       2.471  15.448   3.804  1.00  0.00           C
ATOM      9  C   UNL     1       1.168  15.062   4.139  1.00  0.00           C
ATOM     10  N   UNL     1       0.523  15.106   5.349  1.00  0.00           N
ATOM     11  C   UNL     1       2.533  14.579   0.105  1.00  0.00           C
ATOM     12  N   UNL     1       3.467  15.412  -0.473  1.00  0.00           N
ATOM     13  H   UNL     1       3.897  16.206  -0.025  1.00  0.00           H
ATOM     14  C   UNL     1       3.694  15.004  -1.760  1.00  0.00           C
ATOM     15  C   UNL     1       4.526  15.493  -2.771  1.00  0.00           C
ATOM     16  C   UNL     1       4.532  14.807  -3.993  1.00  0.00           C
ATOM     17  C   UNL     1       3.654  13.735  -4.192  1.00  0.00           C
ATOM     18  C   UNL     1       2.822  13.262  -3.161  1.00  0.00           C
ATOM     19  C   UNL     1       2.848  13.916  -1.922  1.00  0.00           C
ATOM     20  N   UNL     1       2.130  13.678  -0.772  1.00  0.00           N
ATOM     21  N   UNL     1       5.242  15.340  -5.080  1.00  0.00           N
ATOM     22  H   UNL     1       5.448  14.663  -5.808  1.00  0.00           H
ATOM     23  H   UNL     1       6.059  15.881  -4.814  1.00  0.00           H
ATOM     24  C   UNL     1      -4.722  13.441   9.116  1.00  0.00           C
ATOM     25  C   UNL     1      -3.692  13.823   8.093  1.00  0.00           C
ATOM     26  C   UNL     1      -2.334  13.812   8.428  1.00  0.00           C
ATOM     27  C   UNL     1      -1.365  14.109   7.465  1.00  0.00           C
ATOM     28  C   UNL     1      -1.730  14.408   6.145  1.00  0.00           C
ATOM     29  C   UNL     1      -3.093  14.460   5.825  1.00  0.00           C
ATOM     30  C   UNL     1      -4.066  14.170   6.791  1.00  0.00           C
ENDROOT
TORSDOF 0
ENDMDL
MODEL 3
REMARK VINA RESULT:    -5.619      3.545      6.438
REMARK INTER + INTRA:          -5.619
REMARK INTER:                  -5.619
REMARK INTRA:                   0.000
REMARK UNBOUND:                 0.000
ROOT
ATOM      1  C   UNL     1       1.204  14.905   3.517  1.00  0.00           C
ATOM      2  N   UNL     1       0.882  14.570   2.218  1.00  0.00           N
ATOM      3  H   UNL     1       0.018  14.139   1.926  1.00  0.00           H
ATOM      4  C   UNL     1       1.954  14.842   1.409  1.00  0.00           C
ATOM      5  C   UNL     1       2.175  14.675   0.036  1.00  0.00           C
ATOM      6  C   UNL     1       3.420  15.082  -0.478  1.00  0.00           C
ATOM      7  C   UNL     1       4.391  15.612   0.392  1.00  0.00           C
ATOM      8  C   UNL     1       4.146  15.758   1.767  1.00  0.00           C
ATOM      9  C   UNL     1       2.903  15.363   2.275  1.00  0.00           C
ATOM     10  N   UNL     1       2.434  15.387   3.565  1.00  0.00           N
ATOM     11  C   UNL     1       3.689  14.947  -1.917  1.00  0.00           C
ATOM     12  N   UNL     1       4.532  15.791  -2.608  1.00  0.00           N
ATOM     13  H   UNL     1       5.020  16.579  -2.212  1.00  0.00           H
ATOM     14  C   UNL     1       4.576  15.403  -3.920  1.00  0.00           C
ATOM     15  C   UNL     1       5.257  15.911  -5.030  1.00  0.00           C
ATOM     16  C   UNL     1       5.092  15.243  -6.251  1.00  0.00           C
ATOM     17  C   UNL     1       4.195  14.172  -6.342  1.00  0.00           C
ATOM     18  C   UNL     1       3.516  13.680  -5.212  1.00  0.00           C
ATOM     19  C   UNL     1       3.716  14.316  -3.979  1.00  0.00           C
ATOM     20  N   UNL     1       3.167  14.058  -2.743  1.00  0.00           N
ATOM     21  N   UNL     1       5.642  15.794  -7.419  1.00  0.00           N
ATOM     22  H   UNL     1       5.744  15.130  -8.179  1.00  0.00           H
ATOM     23  H   UNL     1       6.488  16.334  -7.262  1.00  0.00           H
ATOM     24  C   UNL     1      -2.229  13.650   8.004  1.00  0.00           C
ATOM     25  C   UNL     1      -1.353  14.051   6.853  1.00  0.00           C
ATOM     26  C   UNL     1       0.038  14.038   6.994  1.00  0.00           C
ATOM     27  C   UNL     1       0.863  14.352   5.908  1.00  0.00           C
ATOM     28  C   UNL     1       0.316  14.671   4.658  1.00  0.00           C
ATOM     29  C   UNL     1      -1.079  14.724   4.534  1.00  0.00           C
ATOM     30  C   UNL     1      -1.906  14.416   5.621  1.00  0.00           C
ENDROOT
TORSDOF 0
ENDMDL
MODEL 4
REMARK VINA RESULT:    -5.614      9.485      9.691
REMARK INTER + INTRA:          -5.614
REMARK INTER:                  -5.614
REMARK INTRA:                   0.000
REMARK UNBOUND:                 0.000
ROOT
ATOM      1  C   UNL     1      -0.867   9.631  14.542  1.00  0.00           C
ATOM      2  N   UNL     1      -0.172  10.796  14.791  1.00  0.00           N
ATOM      3  H   UNL     1      -0.476  11.537  15.404  1.00  0.00           H
ATOM      4  C   UNL     1       0.955  10.817  14.009  1.00  0.00           C
ATOM      5  C   UNL     1       1.982  11.755  13.848  1.00  0.00           C
ATOM      6  C   UNL     1       3.016  11.440  12.946  1.00  0.00           C
ATOM      7  C   UNL     1       2.970  10.228  12.234  1.00  0.00           C
ATOM      8  C   UNL     1       1.922   9.311  12.407  1.00  0.00           C
ATOM      9  C   UNL     1       0.900   9.619  13.313  1.00  0.00           C
ATOM     10  N   UNL     1      -0.226   8.908  13.642  1.00  0.00           N
ATOM     11  C   UNL     1       4.127  12.385  12.761  1.00  0.00           C
ATOM     12  N   UNL     1       5.403  11.988  12.423  1.00  0.00           N
ATOM     13  H   UNL     1       5.702  11.034  12.294  1.00  0.00           H
ATOM     14  C   UNL     1       6.203  13.094  12.321  1.00  0.00           C
ATOM     15  C   UNL     1       7.558  13.252  12.016  1.00  0.00           C
ATOM     16  C   UNL     1       8.064  14.558  11.973  1.00  0.00           C
ATOM     17  C   UNL     1       7.239  15.634  12.323  1.00  0.00           C
ATOM     18  C   UNL     1       5.879  15.452  12.631  1.00  0.00           C
ATOM     19  C   UNL     1       5.358  14.151  12.628  1.00  0.00           C
ATOM     20  N   UNL     1       4.089  13.697  12.912  1.00  0.00           N
ATOM     21  N   UNL     1       9.443  14.760  11.810  1.00  0.00           N
ATOM     22  H   UNL     1       9.687  15.692  11.492  1.00  0.00           H
ATOM     23  H   UNL     1       9.905  14.034  11.271  1.00  0.00           H
ATOM     24  C   UNL     1      -6.130   8.620  16.727  1.00  0.00           C
ATOM     25  C   UNL     1      -4.738   8.825  16.206  1.00  0.00           C
ATOM     26  C   UNL     1      -4.388   8.347  14.939  1.00  0.00           C
ATOM     27  C   UNL     1      -3.111   8.586  14.420  1.00  0.00           C
ATOM     28  C   UNL     1      -2.164   9.318  15.149  1.00  0.00           C
ATOM     29  C   UNL     1      -2.506   9.758  16.435  1.00  0.00           C
ATOM     30  C   UNL     1      -3.782   9.514  16.958  1.00  0.00           C
ENDROOT
TORSDOF 0
ENDMDL
MODEL 5
REMARK VINA RESULT:    -5.334      4.947      8.290
REMARK INTER + INTRA:          -5.334
REMARK INTER:                  -5.334
REMARK INTRA:                   0.000
REMARK UNBOUND:                 0.000
ROOT
ATOM      1  C   UNL     1       1.495  15.231   1.473  1.00  0.00           C
ATOM      2  N   UNL     1       1.244  14.509   0.325  1.00  0.00           N
ATOM      3  H   UNL     1       0.466  13.880   0.191  1.00  0.00           H
ATOM      4  C   UNL     1       2.263  14.722  -0.567  1.00  0.00           C
ATOM      5  C   UNL     1       2.521  14.227  -1.852  1.00  0.00           C
ATOM      6  C   UNL     1       3.685  14.678  -2.501  1.00  0.00           C
ATOM      7  C   UNL     1       4.546  15.574  -1.841  1.00  0.00           C
ATOM      8  C   UNL     1       4.268  16.045  -0.549  1.00  0.00           C
ATOM      9  C   UNL     1       3.104  15.606   0.093  1.00  0.00           C
ATOM     10  N   UNL     1       2.626  15.901   1.345  1.00  0.00           N
ATOM     11  C   UNL     1       3.985  14.203  -3.860  1.00  0.00           C
ATOM     12  N   UNL     1       4.682  14.954  -4.782  1.00  0.00           N
ATOM     13  H   UNL     1       5.028  15.888  -4.631  1.00  0.00           H
ATOM     14  C   UNL     1       4.801  14.238  -5.943  1.00  0.00           C
ATOM     15  C   UNL     1       5.399  14.530  -7.172  1.00  0.00           C
ATOM     16  C   UNL     1       5.358  13.539  -8.163  1.00  0.00           C
ATOM     17  C   UNL     1       4.653  12.352  -7.929  1.00  0.00           C
ATOM     18  C   UNL     1       4.055  12.081  -6.686  1.00  0.00           C
ATOM     19  C   UNL     1       4.136  13.050  -5.676  1.00  0.00           C
ATOM     20  N   UNL     1       3.626  13.051  -4.397  1.00  0.00           N
ATOM     21  N   UNL     1       5.819  13.835  -9.455  1.00  0.00           N
ATOM     22  H   UNL     1       6.036  13.015 -10.012  1.00  0.00           H
ATOM     23  H   UNL     1       6.561  14.527  -9.480  1.00  0.00           H
ATOM     24  C   UNL     1      -1.721  14.697   6.255  1.00  0.00           C
ATOM     25  C   UNL     1      -0.915  14.908   5.008  1.00  0.00           C
ATOM     26  C   UNL     1       0.458  15.160   5.095  1.00  0.00           C
ATOM     27  C   UNL     1       1.228  15.298   3.936  1.00  0.00           C
ATOM     28  C   UNL     1       0.647  15.173   2.667  1.00  0.00           C
ATOM     29  C   UNL     1      -0.736  14.963   2.584  1.00  0.00           C
ATOM     30  C   UNL     1      -1.510  14.831   3.744  1.00  0.00           C
ENDROOT
TORSDOF 0
ENDMDL
