MODEL 1
REMARK VINA RESULT:    -4.762      0.000      0.000
REMARK INTER + INTRA:          -4.762
REMARK INTER:                  -4.762
REMARK INTRA:                   0.000
REMARK UNBOUND:                 0.000
ROOT
ATOM      1  C   UNL     1       5.438  11.909  11.045  1.00  0.00           C
ATOM      2  N   UNL     1       6.348  12.710  11.698  1.00  0.00           N
ATOM      3  H   UNL     1       6.236  12.887  12.686  1.00  0.00           H
ATOM      4  O   UNL     1       5.601  11.486   9.905  1.00  0.00           O
ATOM      5  C   UNL     1       3.858  13.683  13.107  1.00  0.00           C
ATOM      6  C   UNL     1       3.522  12.262  12.752  1.00  0.00           C
ATOM      7  C   UNL     1       4.234  11.482  11.820  1.00  0.00           C
ATOM      8  C   UNL     1       3.759  10.193  11.552  1.00  0.00           C
ATOM      9  N   UNL     1       2.684   9.614  12.152  1.00  0.00           N
ATOM     10  C   UNL     1       2.031  10.381  13.061  1.00  0.00           C
ATOM     11  C   UNL     1       2.405  11.681  13.381  1.00  0.00           C
ATOM     12  C   UNL     1       0.853   9.767  13.757  1.00  0.00           C
ATOM     13  N   UNL     1       0.541   8.488  13.386  1.00  0.00           N
ATOM     14  H   UNL     1      -0.238   8.020  13.825  1.00  0.00           H
ATOM     15  H   UNL     1       1.089   8.018  12.674  1.00  0.00           H
ATOM     16  O   UNL     1       0.211  10.364  14.612  1.00  0.00           O
ATOM     17  C   UNL     1       7.584  13.166  11.086  1.00  0.00           C
ATOM     18  C   UNL     1       7.630  14.678  10.907  1.00  0.00           C
ATOM     19  C   UNL     1       7.453  15.426  12.210  1.00  0.00           C
ATOM     20  N   UNL     1       8.483  15.285  13.108  1.00  0.00           N
ATOM     21  H   UNL     1       9.205  14.589  12.949  1.00  0.00           H
ATOM     22  O   UNL     1       6.452  16.098  12.448  1.00  0.00           O
ATOM     23  C   UNL     1       8.443  15.881  14.433  1.00  0.00           C
ATOM     24  C   UNL     1       7.633  15.066  15.435  1.00  0.00           C
ATOM     25  C   UNL     1       8.254  13.714  15.706  1.00  0.00           C
ATOM     26  N   UNL     1       7.586  12.964  16.631  1.00  0.00           N
ATOM     27  H   UNL     1       7.980  12.062  16.880  1.00  0.00           H
ATOM     28  H   UNL     1       6.816  13.319  17.179  1.00  0.00           H
ATOM     29  O   UNL     1       9.251  13.279  15.142  1.00  0.00           O
ENDROOT
TORSDOF 0
ENDMDL
MODEL 2
REMARK VINA RESULT:    -4.720      9.475     10.884
REMARK INTER + INTRA:          -4.720
REMARK INTER:                  -4.720
REMARK INTRA:                   0.000
REMARK UNBOUND:                 0.000
ROOT
ATOM      1  C   UNL     1      -1.129  14.969   2.696  1.00  0.00           C
ATOM      2  N   UNL     1       0.182  14.582   2.534  1.00  0.00           N
ATOM      3  H   UNL     1       0.638  14.050   3.261  1.00  0.00           H
ATOM      4  O   UNL     1      -1.813  15.442   1.795  1.00  0.00           O
ATOM      5  C   UNL     1       0.312  15.254   5.478  1.00  0.00           C
ATOM      6  C   UNL     1      -1.115  14.827   5.283  1.00  0.00           C
ATOM      7  C   UNL     1      -1.750  14.711   4.031  1.00  0.00           C
ATOM      8  C   UNL     1      -3.104  14.361   4.018  1.00  0.00           C
ATOM      9  N   UNL     1      -3.852  14.081   5.120  1.00  0.00           N
ATOM     10  C   UNL     1      -3.209  14.179   6.310  1.00  0.00           C
ATOM     11  C   UNL     1      -1.872  14.544   6.435  1.00  0.00           C
ATOM     12  C   UNL     1      -3.996  13.857   7.544  1.00  0.00           C
ATOM     13  N   UNL     1      -5.304  13.513   7.345  1.00  0.00           N
ATOM     14  H   UNL     1      -5.883  13.279   8.138  1.00  0.00           H
ATOM     15  H   UNL     1      -5.687  13.495   6.406  1.00  0.00           H
ATOM     16  O   UNL     1      -3.504  13.890   8.666  1.00  0.00           O
ATOM     17  C   UNL     1       0.903  14.730   1.282  1.00  0.00           C
ATOM     18  C   UNL     1       2.068  15.705   1.383  1.00  0.00           C
ATOM     19  C   UNL     1       3.067  15.312   2.449  1.00  0.00           C
ATOM     20  N   UNL     1       3.772  14.160   2.192  1.00  0.00           N
ATOM     21  H   UNL     1       3.496  13.555   1.425  1.00  0.00           H
ATOM     22  O   UNL     1       3.223  15.970   3.475  1.00  0.00           O
ATOM     23  C   UNL     1       4.722  13.605   3.142  1.00  0.00           C
ATOM     24  C   UNL     1       4.059  12.796   4.251  1.00  0.00           C
ATOM     25  C   UNL     1       3.370  11.559   3.722  1.00  0.00           C
ATOM     26  N   UNL     1       2.797  10.778   4.685  1.00  0.00           N
ATOM     27  H   UNL     1       2.353   9.915   4.389  1.00  0.00           H
ATOM     28  H   UNL     1       2.922  10.939   5.673  1.00  0.00           H
ATOM     29  O   UNL     1       3.281  11.264   2.536  1.00  0.00           O
ENDROOT
TORSDOF 0
ENDMDL
MODEL 3
REMARK VINA RESULT:    -4.374      9.093     10.716
REMARK INTER + INTRA:          -4.374
REMARK INTER:                  -4.374
REMARK INTRA:                   0.000
REMARK UNBOUND:                 0.000
ROOT
ATOM      1  C   UNL     1      -2.418  12.927   3.875  1.00  0.00           C
ATOM      2  N   UNL     1      -1.158  13.078   3.341  1.00  0.00           N
ATOM      3  H   UNL     1      -0.376  13.257   3.953  1.00  0.00           H
ATOM      4  O   UNL     1      -3.382  12.519   3.236  1.00  0.00           O
ATOM      5  C   UNL     1      -0.960  15.211   5.473  1.00  0.00           C
ATOM      6  C   UNL     1      -1.919  14.217   6.066  1.00  0.00           C
ATOM      7  C   UNL     1      -2.571  13.204   5.336  1.00  0.00           C
ATOM      8  C   UNL     1      -3.484  12.394   6.020  1.00  0.00           C
ATOM      9  N   UNL     1      -3.765  12.479   7.348  1.00  0.00           N
ATOM     10  C   UNL     1      -3.105  13.449   8.030  1.00  0.00           C
ATOM     11  C   UNL     1      -2.198  14.323   7.440  1.00  0.00           C
ATOM     12  C   UNL     1      -3.375  13.559   9.501  1.00  0.00           C
ATOM     13  N   UNL     1      -4.283  12.671  10.009  1.00  0.00           N
ATOM     14  H   UNL     1      -4.500  12.692  10.994  1.00  0.00           H
ATOM     15  H   UNL     1      -4.734  12.000   9.396  1.00  0.00           H
ATOM     16  O   UNL     1      -2.814  14.383  10.213  1.00  0.00           O
ATOM     17  C   UNL     1      -0.850  12.803   1.948  1.00  0.00           C
ATOM     18  C   UNL     1      -0.424  14.048   1.181  1.00  0.00           C
ATOM     19  C   UNL     1       0.777  14.730   1.796  1.00  0.00           C
ATOM     20  N   UNL     1       1.952  14.021   1.723  1.00  0.00           N
ATOM     21  H   UNL     1       1.942  13.049   1.430  1.00  0.00           H
ATOM     22  O   UNL     1       0.701  15.832   2.334  1.00  0.00           O
ATOM     23  C   UNL     1       3.186  14.500   2.323  1.00  0.00           C
ATOM     24  C   UNL     1       3.270  14.230   3.821  1.00  0.00           C
ATOM     25  C   UNL     1       3.311  12.752   4.134  1.00  0.00           C
ATOM     26  N   UNL     1       3.430  12.461   5.463  1.00  0.00           N
ATOM     27  H   UNL     1       3.500  11.483   5.726  1.00  0.00           H
ATOM     28  H   UNL     1       3.599  13.162   6.169  1.00  0.00           H
ATOM     29  O   UNL     1       3.215  11.860   3.299  1.00  0.00           O
ENDROOT
TORSDOF 0
ENDMDL
MODEL 4
REMARK VINA RESULT:    -4.276     10.894     13.938
REMARK INTER + INTRA:          -4.276
REMARK INTER:                  -4.276
REMARK INTRA:                   0.000
REMARK UNBOUND:                 0.000
ROOT
ATOM      1  C   UNL     1      -1.629  14.365   5.650  1.00  0.00           C
ATOM      2  N   UNL     1      -2.749  13.919   4.986  1.00  0.00           N
ATOM      3  H   UNL     1      -2.685  13.676   4.008  1.00  0.00           H
ATOM      4  O   UNL     1      -1.569  14.494   6.868  1.00  0.00           O
ATOM      5  C   UNL     1      -1.593  15.605   2.759  1.00  0.00           C
ATOM      6  C   UNL     1      -0.378  15.165   3.527  1.00  0.00           C
ATOM      7  C   UNL     1      -0.409  14.618   4.825  1.00  0.00           C
ATOM      8  C   UNL     1       0.814  14.314   5.432  1.00  0.00           C
ATOM      9  N   UNL     1       2.036  14.466   4.852  1.00  0.00           N
ATOM     10  C   UNL     1       2.033  14.973   3.593  1.00  0.00           C
ATOM     11  C   UNL     1       0.876  15.332   2.911  1.00  0.00           C
ATOM     12  C   UNL     1       3.360  15.134   2.916  1.00  0.00           C
ATOM     13  N   UNL     1       4.454  14.767   3.650  1.00  0.00           N
ATOM     14  H   UNL     1       5.375  14.847   3.244  1.00  0.00           H
ATOM     15  H   UNL     1       4.337  14.420   4.596  1.00  0.00           H
ATOM     16  O   UNL     1       3.467  15.559   1.772  1.00  0.00           O
ATOM     17  C   UNL     1      -3.993  13.591   5.661  1.00  0.00           C
ATOM     18  C   UNL     1      -5.139  14.513   5.268  1.00  0.00           C
ATOM     19  C   UNL     1      -5.405  14.512   3.779  1.00  0.00           C
ATOM     20  N   UNL     1      -5.897  13.331   3.275  1.00  0.00           N
ATOM     21  H   UNL     1      -5.904  12.496   3.852  1.00  0.00           H
ATOM     22  O   UNL     1      -5.183  15.492   3.073  1.00  0.00           O
ATOM     23  C   UNL     1      -6.144  13.137   1.857  1.00  0.00           C
ATOM     24  C   UNL     1      -4.885  12.796   1.068  1.00  0.00           C
ATOM     25  C   UNL     1      -4.296  11.466   1.480  1.00  0.00           C
ATOM     26  N   UNL     1      -3.189  11.096   0.770  1.00  0.00           N
ATOM     27  H   UNL     1      -2.776  10.193   0.979  1.00  0.00           H
ATOM     28  H   UNL     1      -2.858  11.600  -0.039  1.00  0.00           H
ATOM     29  O   UNL     1      -4.727  10.764   2.388  1.00  0.00           O
ENDROOT
TORSDOF 0
ENDMDL
MODEL 5
REMARK VINA RESULT:    -4.224     10.873     12.270
REMARK INTER + INTRA:          -4.224
REMARK INTER:                  -4.224
REMARK INTRA:                   0.000
REMARK UNBOUND:                 0.000
ROOT
ATOM      1  C   UNL     1       0.242  13.988   0.908  1.00  0.00           C
ATOM      2  N   UNL     1       0.944  13.506   1.989  1.00  0.00           N
ATOM      3  H   UNL     1       0.480  13.405   2.880  1.00  0.00           H
ATOM      4  O   UNL     1       0.664  13.961  -0.243  1.00  0.00           O
ATOM      5  C   UNL     1      -0.675  15.598   3.451  1.00  0.00           C
ATOM      6  C   UNL     1      -1.567  15.207   2.307  1.00  0.00           C
ATOM      7  C   UNL     1      -1.141  14.492   1.171  1.00  0.00           C
ATOM      8  C   UNL     1      -2.080  14.257   0.160  1.00  0.00           C
ATOM      9  N   UNL     1      -3.388  14.628   0.205  1.00  0.00           N
ATOM     10  C   UNL     1      -3.775  15.295   1.321  1.00  0.00           C
ATOM     11  C   UNL     1      -2.916  15.601   2.371  1.00  0.00           C
ATOM     12  C   UNL     1      -5.215  15.701   1.413  1.00  0.00           C
ATOM     13  N   UNL     1      -5.998  15.371   0.342  1.00  0.00           N
ATOM     14  H   UNL     1      -6.978  15.613   0.349  1.00  0.00           H
ATOM     15  H   UNL     1      -5.593  14.890  -0.454  1.00  0.00           H
ATOM     16  O   UNL     1      -5.673  16.284   2.389  1.00  0.00           O
ATOM     17  C   UNL     1       2.280  12.945   1.880  1.00  0.00           C
ATOM     18  C   UNL     1       3.328  13.770   2.615  1.00  0.00           C
ATOM     19  C   UNL     1       3.013  13.935   4.086  1.00  0.00           C
ATOM     20  N   UNL     1       3.084  12.782   4.831  1.00  0.00           N
ATOM     21  H   UNL     1       3.172  11.883   4.369  1.00  0.00           H
ATOM     22  O   UNL     1       2.703  15.020   4.571  1.00  0.00           O
ATOM     23  C   UNL     1       2.748  12.751   6.244  1.00  0.00           C
ATOM     24  C   UNL     1       1.247  12.669   6.503  1.00  0.00           C
ATOM     25  C   UNL     1       0.650  11.375   5.999  1.00  0.00           C
ATOM     26  N   UNL     1      -0.686  11.237   6.247  1.00  0.00           N
ATOM     27  H   UNL     1      -1.130  10.370   5.964  1.00  0.00           H
ATOM     28  H   UNL     1      -1.210  11.880   6.821  1.00  0.00           H
ATOM     29  O   UNL     1       1.271  10.513   5.387  1.00  0.00           O
ENDROOT
TORSDOF 0
ENDMDL
