ROOT
ATOM      1  C   UNL     1       2.450  -2.437   0.051  1.00  0.00           C
ATOM      2  N   UNL     1       1.083  -2.526  -0.081  1.00  0.00           N
ATOM      3  H   UNL     1       0.546  -1.693  -0.276  1.00  0.00           H
ATOM      4  O   UNL     1       3.193  -3.412   0.093  1.00  0.00           O
ATOM      5  C   UNL     1       1.182   0.100   1.412  1.00  0.00           C
ATOM      6  C   UNL     1       2.481   0.082   0.657  1.00  0.00           C
ATOM      7  C   UNL     1       3.041  -1.064   0.059  1.00  0.00           C
ATOM      8  C   UNL     1       4.290  -0.932  -0.557  1.00  0.00           C
ATOM      9  N   UNL     1       4.993   0.228  -0.662  1.00  0.00           N
ATOM     10  C   UNL     1       4.419   1.320  -0.097  1.00  0.00           C
ATOM     11  C   UNL     1       3.194   1.291   0.561  1.00  0.00           C
ATOM     12  C   UNL     1       5.156   2.620  -0.212  1.00  0.00           C
ATOM     13  N   UNL     1       6.356   2.570  -0.866  1.00  0.00           N
ATOM     14  H   UNL     1       6.895   3.416  -0.981  1.00  0.00           H
ATOM     15  H   UNL     1       6.699   1.688  -1.230  1.00  0.00           H
ATOM     16  O   UNL     1       4.714   3.669   0.241  1.00  0.00           O
ATOM     17  C   UNL     1       0.374  -3.792  -0.148  1.00  0.00           C
ATOM     18  C   UNL     1      -0.556  -4.011   1.038  1.00  0.00           C
ATOM     19  C   UNL     1      -1.584  -2.911   1.184  1.00  0.00           C
ATOM     20  N   UNL     1      -2.523  -2.853   0.182  1.00  0.00           N
ATOM     21  H   UNL     1      -2.403  -3.407  -0.660  1.00  0.00           H
ATOM     22  O   UNL     1      -1.568  -2.120   2.124  1.00  0.00           O
ATOM     23  C   UNL     1      -3.541  -1.817   0.133  1.00  0.00           C
ATOM     24  C   UNL     1      -3.033  -0.502  -0.448  1.00  0.00           C
ATOM     25  C   UNL     1      -2.635  -0.635  -1.900  1.00  0.00           C
ATOM     26  N   UNL     1      -2.213   0.529  -2.477  1.00  0.00           N
ATOM     27  H   UNL     1      -1.970   0.505  -3.462  1.00  0.00           H
ATOM     28  H   UNL     1      -2.273   1.426  -2.019  1.00  0.00           H
ATOM     29  O   UNL     1      -2.645  -1.685  -2.532  1.00  0.00           O
ENDROOT
TORSDOF 0