MODEL 1
REMARK VINA RESULT:    -6.530      0.000      0.000
REMARK INTER + INTRA:          -6.530
REMARK INTER:                  -6.530
REMARK INTRA:                   0.000
REMARK UNBOUND:                 0.000
ROOT
ATOM      1  C   UNL     1       6.600  12.613  11.540  1.00  0.00           C
ATOM      2  C   UNL     1       7.239  11.366  11.429  1.00  0.00           C
ATOM      3  C   UNL     1       8.452  11.218  10.738  1.00  0.00           C
ATOM      4  C   UNL     1       9.045  12.353  10.173  1.00  0.00           C
ATOM      5  N   UNL     1      10.219  12.474   9.477  1.00  0.00           N
ATOM      6  C   UNL     1      10.359  13.760   9.202  1.00  0.00           C
ATOM      7  N   UNL     1       9.271  14.458   9.681  1.00  0.00           N
ATOM      8  H   UNL     1       9.132  15.453   9.614  1.00  0.00           H
ATOM      9  C   UNL     1       8.423  13.583  10.313  1.00  0.00           C
ATOM     10  C   UNL     1       7.206  13.757  10.983  1.00  0.00           C
ATOM     11  C   UNL     1       1.824  10.451  13.077  1.00  0.00           C
ATOM     12  C   UNL     1       2.786   9.853  12.244  1.00  0.00           C
ATOM     13  C   UNL     1       3.985  10.485  11.876  1.00  0.00           C
ATOM     14  C   UNL     1       4.253  11.779  12.353  1.00  0.00           C
ATOM     15  C   UNL     1       5.315  12.737  12.244  1.00  0.00           C
ATOM     16  N   UNL     1       4.996  13.871  12.896  1.00  0.00           N
ATOM     17  N   UNL     1       3.794  13.620  13.435  1.00  0.00           N
ATOM     18  H   UNL     1       3.359  14.345  13.993  1.00  0.00           H
ATOM     19  C   UNL     1       3.291  12.384  13.147  1.00  0.00           C
ATOM     20  C   UNL     1       2.091  11.758  13.521  1.00  0.00           C
ATOM     21  N   UNL     1      -1.201   8.427  15.298  1.00  0.00           N
ATOM     22  C   UNL     1      -1.096   9.907  15.194  1.00  0.00           C
ATOM     23  C   UNL     1      -0.579  10.437  13.831  1.00  0.00           C
ATOM     24  N   UNL     1       0.679   9.771  13.450  1.00  0.00           N
ATOM     25  C   UNL     1       0.650   8.300  13.543  1.00  0.00           C
ATOM     26  C   UNL     1       0.121   7.866  14.929  1.00  0.00           C
ATOM     27  C   UNL     1      -2.492   6.414  14.519  1.00  0.00           C
ATOM     28  C   UNL     1      -2.303   7.926  14.460  1.00  0.00           C
ATOM     29  C   UNL     1      11.521  14.365   8.534  1.00  0.00           C
ATOM     30  C   UNL     1      11.626  15.744   8.302  1.00  0.00           C
ATOM     31  C   UNL     1      12.777  16.283   7.721  1.00  0.00           C
ATOM     32  C   UNL     1      13.825  15.441   7.377  1.00  0.00           C
ATOM     33  C   UNL     1      13.749  14.060   7.578  1.00  0.00           C
ATOM     34  C   UNL     1      12.590  13.529   8.146  1.00  0.00           C
ATOM     35  O   UNL     1      14.955  15.999   6.844  1.00  0.00           O
ATOM     36  H   UNL     1      15.567  15.248   6.710  1.00  0.00           H
ATOM     37  O   UNL     1      14.861  13.357   7.193  1.00  0.00           O
ATOM     38  C   UNL     1      14.823  11.947   7.388  1.00  0.00           C
ENDROOT
TORSDOF 0
ENDMDL